 Gaussian 09, Revision A.02,
 Gaussian 09:  EM64L-G09RevA.02 11-Jun-2009

 -------------------
 #SP MP2/aug-cc-pVDZ
 -------------------

 -------------------------------
 Single Point calculation at MP2
 -------------------------------
 Symbolic Z-matrix:
 Charge =  0 Multiplicity = 1

                         Standard orientation:
 ---------------------------------------------------------------------
 Center     Atomic      Atomic             Coordinates (Angstroms)
 Number     Number       Type             X           Y           Z
 ---------------------------------------------------------------------
      1          1           0       -3.679299   -0.857201    1.077895
      2          6           0       -3.399598   -0.384102    0.131895
      3          1           0       -3.781397    0.641199    0.120695
      4          1           0       -3.881699   -0.951401   -0.670005
      5          6           0       -1.888698   -0.502004   -0.036705
      6          8           0       -1.374900   -1.622605   -0.028005
      7          7           0       -1.247297    0.687095   -0.197005
      8          1           0       -1.872895    1.480596   -0.166405
      9          6           0        0.152804    1.155493   -0.389005
     10          1           0        0.250504    1.405293   -1.455905
     11          6           0        0.301806    2.457793    0.412595
     12          1           0        0.176606    2.266293    1.483795
     13          1           0        1.296806    2.869092    0.243895
     14          1           0       -0.446593    3.196994    0.100395
     15          6           0        1.403603    0.266092   -0.124705
     16          8           0        2.489504    0.847390   -0.116905
     17          7           0        1.278901   -1.063508    0.005895
     18          1           0        0.344501   -1.480107   -0.012905
     19          6           0        2.457900   -1.893110    0.186095
     20          1           0        2.157899   -2.941509    0.120495
     21          1           0        3.202400   -1.677811   -0.586705
     22          1           0        2.928200   -1.715810    1.160795
 ---------------------------------------------------------------------

 SCF Done:  E(RHF) =  -492.911307228     A.U. after   14 cycles
 E2 =    -0.1605092757D+01 EUMP2 =    -0.49451639998575D+03

 The electronic state is 1-A.
 Alpha  occ. eigenvalues --  -20.54842 -20.51717 -15.61956 -15.57202 -11.38667
 Alpha  occ. eigenvalues --  -11.35399 -11.30737 -11.26056 -11.25494 -11.23887
 Alpha  occ. eigenvalues --   -1.40236  -1.37304  -1.25671  -1.21681  -1.06451
 Alpha  occ. eigenvalues --   -1.00077  -0.95068  -0.87874  -0.82276  -0.77225
 Alpha  occ. eigenvalues --   -0.71263  -0.70402  -0.66975  -0.63180  -0.62480
 Alpha  occ. eigenvalues --   -0.61152  -0.60190  -0.59314  -0.58113  -0.55984
 Alpha  occ. eigenvalues --   -0.54167  -0.53737  -0.53058  -0.52184  -0.49883
 Alpha  occ. eigenvalues --   -0.44011  -0.42210  -0.40628  -0.37618
 Alpha virt. eigenvalues --    0.02361   0.04080   0.04364   0.04488   0.05618
 Alpha virt. eigenvalues --    0.06303   0.06440   0.06655   0.07322   0.08040
 Alpha virt. eigenvalues --    0.09283   0.09435   0.11678   0.11910   0.12600

 Mulliken atomic charges:
              1
     1  H    0.037464
     2  C    0.477684
     3  H   -0.204604
     4  H    0.045221
     5  C    0.546137
     6  O   -0.941193
     7  N   -0.514568
     8  H   -0.018148
     9  C    0.100251
    10  H    0.008052
    11  C    0.681797
    12  H   -0.041852
    13  H   -0.055845
    14  H   -0.098079
    15  C    0.746390
    16  O   -0.858304
    17  N   -0.276105
    18  H   -0.002209
    19  C    0.696441
    20  H   -0.221024
    21  H   -0.065304
    22  H   -0.042203
 Sum of Mulliken atomic charges =   0.00000

 Dipole moment (field-independent basis, Debye):
    X=             -4.7209    Y=              1.4837    Z=              0.0036  Tot=              4.9486
 Quadrupole moment (field-independent basis, Debye-Ang):
   XX=            -62.0383   YY=            -61.2598   ZZ=            -60.7932
   XY=            -10.8379   XZ=              0.5306   YZ=             -0.7640

 Normal termination of Gaussian 09 at Mon Feb 13 22:23:45 2017.
