 Gaussian 09, Revision A.02,
 Gaussian 09:  EM64L-G09RevA.02 11-Jun-2009

 -------------------
 #SP MP2/aug-cc-pVDZ
 -------------------

 -------------------------------
 Single Point calculation at MP2
 -------------------------------
 Symbolic Z-matrix:
 Charge =  0 Multiplicity = 1

                         Standard orientation:
 ---------------------------------------------------------------------
 Center     Atomic      Atomic             Coordinates (Angstroms)
 Number     Number       Type             X           Y           Z
 ---------------------------------------------------------------------
      1          1           0       -3.515096   -1.547723    0.853887
      2          6           0       -3.268303   -0.595421    0.383387
      3          1           0       -3.519709    0.224077    1.065587
      4          1           0       -3.879604   -0.485626   -0.520413
      5          6           0       -1.787203   -0.611211    0.017087
      6          8           0       -1.158495   -1.668406   -0.008313
      7          7           0       -1.292912    0.610093   -0.340513
      8          1           0       -1.963118    1.362788   -0.250313
      9          6           0        0.084084    1.133803   -0.528313
     10          1           0        0.264684    1.180405   -1.613213
     11          6           0        0.122873    2.557903    0.028187
     12          1           0       -0.005226    2.554003    1.114287
     13          1           0        1.086370    3.019711   -0.190713
     14          1           0       -0.666931    3.167998   -0.428313
     15          6           0        1.291190    0.316512    0.032387
     16          8           0        2.120286    0.886118    0.735687
     17          7           0        1.459199   -0.943087   -0.446113
     18          1           0        0.591603   -1.442793   -0.641313
     19          6           0        2.579005   -1.737878    0.038787
     20          1           0        3.501501   -1.161572   -0.057713
     21          1           0        2.464207   -2.019979    1.093787
     22          1           0        2.653112   -2.644278   -0.567313
 ---------------------------------------------------------------------

 SCF Done:  E(RHF) =  -492.910972479     A.U. after   14 cycles
 E2 =    -0.1603761505D+01 EUMP2 =    -0.49451473398397D+03

 The electronic state is 1-A.
 Alpha  occ. eigenvalues --  -20.54782 -20.52847 -15.61362 -15.57017 -11.38234
 Alpha  occ. eigenvalues --  -11.35504 -11.30485 -11.25820 -11.25227 -11.23798
 Alpha  occ. eigenvalues --   -1.40042  -1.37941  -1.25253  -1.21575  -1.06246
 Alpha  occ. eigenvalues --   -0.99884  -0.94905  -0.87402  -0.81794  -0.76196
 Alpha  occ. eigenvalues --   -0.71063  -0.69773  -0.67512  -0.63378  -0.62640
 Alpha  occ. eigenvalues --   -0.61046  -0.60268  -0.58993  -0.57781  -0.55445
 Alpha  occ. eigenvalues --   -0.53921  -0.53268  -0.52613  -0.51936  -0.50796
 Alpha  occ. eigenvalues --   -0.44203  -0.43437  -0.40226  -0.37746
 Alpha virt. eigenvalues --    0.02509   0.03990   0.04333   0.04588   0.05671
 Alpha virt. eigenvalues --    0.06228   0.06498   0.06680   0.06951   0.08247
 Alpha virt. eigenvalues --    0.09056   0.09815   0.11041   0.11477   0.12547

 Mulliken atomic charges:
              1
     1  H   -0.067560
     2  C    0.348133
     3  H   -0.008495
     4  H    0.074965
     5  C    0.683228
     6  O   -0.857087
     7  N   -0.638280
     8  H   -0.045617
     9  C    0.129764
    10  H   -0.080573
    11  C    0.705741
    12  H   -0.033101
    13  H   -0.082493
    14  H   -0.071072
    15  C    0.741648
    16  O   -0.794378
    17  N   -0.463718
    18  H    0.040227
    19  C    0.778972
    20  H   -0.119702
    21  H   -0.055749
    22  H   -0.184853
 Sum of Mulliken atomic charges =   0.00000

 Dipole moment (field-independent basis, Debye):
    X=             -4.1825    Y=              1.4383    Z=             -1.3566  Tot=              4.6263
 Quadrupole moment (field-independent basis, Debye-Ang):
   XX=            -57.5663   YY=            -61.8909   ZZ=            -62.6311
   XY=             -8.6462   XZ=             -4.0836   YZ=             -2.3286

 Normal termination of Gaussian 09 at Mon Feb 13 23:22:22 2017.
