 Gaussian 09, Revision A.02,
 Gaussian 09:  EM64L-G09RevA.02 11-Jun-2009

 -------------------
 #SP MP2/aug-cc-pVDZ
 -------------------

 -------------------------------
 Single Point calculation at MP2
 -------------------------------
 Symbolic Z-matrix:
 Charge =  0 Multiplicity = 1

                         Standard orientation:
 ---------------------------------------------------------------------
 Center     Atomic      Atomic             Coordinates (Angstroms)
 Number     Number       Type             X           Y           Z
 ---------------------------------------------------------------------
      1          1           0       -3.625495   -1.639388   -0.056786
      2          6           0       -3.189490   -0.750990    0.406514
      3          1           0       -3.238891   -0.887790    1.492514
      4          1           0       -3.787485    0.126013    0.139114
      5          6           0       -1.725589   -0.655998   -0.005686
      6          8           0       -1.007095   -1.652202   -0.001986
      7          7           0       -1.319883    0.589500   -0.393686
      8          1           0       -2.024779    1.310303   -0.316886
      9          6           0        0.041820    1.145692   -0.561486
     10          1           0        0.252721    1.172691   -1.640786
     11          6           0        0.051428    2.576492   -0.024086
     12          1           0       -0.075772    2.579893    1.061314
     13          1           0        1.006031    3.057387   -0.248486
     14          1           0       -0.746969    3.167196   -0.490586
     15          6           0        1.217716    0.340086    0.073214
     16          8           0        1.845019    0.809782    1.014814
     17          7           0        1.588310   -0.796616   -0.584186
     18          1           0        0.804207   -1.304812   -0.982086
     19          6           0        2.628805   -1.632522    0.002214
     20          1           0        3.484109   -1.006827    0.262714
     21          1           0        2.284602   -2.142120    0.911714
     22          1           0        2.937201   -2.379924   -0.733386
 ---------------------------------------------------------------------

 SCF Done:  E(RHF) =  -492.912903137     A.U. after   15 cycles
 E2 =    -0.1602990146D+01 EUMP2 =    -0.49451589328300D+03

 The electronic state is 1-A.
 Alpha  occ. eigenvalues --  -20.54137 -20.53195 -15.61256 -15.57333 -11.37821
 Alpha  occ. eigenvalues --  -11.35586 -11.30267 -11.25648 -11.25170 -11.23870
 Alpha  occ. eigenvalues --   -1.39663  -1.38148  -1.25059  -1.21732  -1.06100
 Alpha  occ. eigenvalues --   -0.99804  -0.94863  -0.87304  -0.81610  -0.76070
 Alpha  occ. eigenvalues --   -0.70765  -0.69748  -0.67490  -0.63421  -0.62462
 Alpha  occ. eigenvalues --   -0.61315  -0.60034  -0.58846  -0.57572  -0.55225
 Alpha  occ. eigenvalues --   -0.53804  -0.53257  -0.52886  -0.51363  -0.50932
 Alpha  occ. eigenvalues --   -0.43982  -0.43503  -0.40267  -0.37915
 Alpha virt. eigenvalues --    0.02527   0.04017   0.04291   0.04746   0.05618
 Alpha virt. eigenvalues --    0.06052   0.06530   0.06946   0.07275   0.08120
 Alpha virt. eigenvalues --    0.09028   0.09817   0.11133   0.12211   0.12510

 Mulliken atomic charges:
              1
     1  H    0.021021
     2  C    0.410366
     3  H    0.051236
     4  H   -0.155697
     5  C    0.603505
     6  O   -0.849345
     7  N   -0.545117
     8  H   -0.046229
     9  C    0.155996
    10  H   -0.141307
    11  C    0.696263
    12  H    0.004006
    13  H   -0.084915
    14  H   -0.060463
    15  C    0.816451
    16  O   -0.813951
    17  N   -0.518625
    18  H    0.053821
    19  C    0.758669
    20  H   -0.119854
    21  H   -0.053862
    22  H   -0.181968
 Sum of Mulliken atomic charges =   0.00000

 Dipole moment (field-independent basis, Debye):
    X=             -3.8105    Y=              1.4715    Z=             -1.9702  Tot=              4.5351
 Quadrupole moment (field-independent basis, Debye-Ang):
   XX=            -55.2757   YY=            -61.4963   ZZ=            -63.6130
   XY=             -7.0074   XZ=             -4.5031   YZ=             -2.1626

 Normal termination of Gaussian 09 at Mon Feb 13 23:01:22 2017.
