 Gaussian 09, Revision A.02,
 Gaussian 09:  EM64L-G09RevA.02 11-Jun-2009

 -------------------
 #SP MP2/aug-cc-pVDZ
 -------------------

 -------------------------------
 Single Point calculation at MP2
 -------------------------------
 Symbolic Z-matrix:
 Charge =  0 Multiplicity = 1

                         Standard orientation:
 ---------------------------------------------------------------------
 Center     Atomic      Atomic             Coordinates (Angstroms)
 Number     Number       Type             X           Y           Z
 ---------------------------------------------------------------------
      1          1           0        3.934801    0.642719   -0.015104
      2          6           0        3.474703   -0.318582    0.244096
      3          1           0        3.532504   -0.436182    1.333396
      4          1           0        4.039405   -1.124780   -0.226004
      5          6           0        2.020504   -0.407785   -0.217204
      6          8           0        1.583406   -1.384386   -0.790104
      7          7           0        1.307001    0.771413    0.005096
      8          1           0        1.884299    1.472815    0.455396
      9          6           0       -0.098600    1.004810    0.383196
     10          1           0       -0.124800    1.168810    1.472396
     11          6           0       -0.562703    2.303309   -0.297104
     12          1           0       -0.651002    2.170309   -1.380904
     13          1           0       -1.516204    2.655807    0.110796
     14          1           0        0.171295    3.098411   -0.125604
     15          6           0       -1.047697   -0.208592    0.225996
     16          8           0       -0.730894   -1.324191    0.601496
     17          7           0       -2.354598    0.111205   -0.056704
     18          1           0       -2.541900    0.951304   -0.584404
     19          6           0       -3.351495   -0.947698   -0.131204
     20          1           0       -3.212794   -1.617297    0.719096
     21          1           0       -4.348496   -0.501000   -0.086704
     22          1           0       -3.262294   -1.543397   -1.048904
 ---------------------------------------------------------------------

 SCF Done:  E(RHF) =  -492.892057964     A.U. after   14 cycles
 E2 =    -0.1604825071D+01 EUMP2 =    -0.49449688303481D+03

 The electronic state is 1-A.
 Alpha  occ. eigenvalues --  -20.52454 -20.52264 -15.59263 -15.59119 -11.35865
 Alpha  occ. eigenvalues --  -11.35500 -11.30576 -11.26393 -11.25125 -11.24125
 Alpha  occ. eigenvalues --   -1.38571  -1.37155  -1.23411  -1.22533  -1.05838
 Alpha  occ. eigenvalues --   -0.98697  -0.94984  -0.88846  -0.80045  -0.77125
 Alpha  occ. eigenvalues --   -0.69938  -0.68363  -0.65406  -0.64295  -0.61463
 Alpha  occ. eigenvalues --   -0.60821  -0.59977  -0.57453  -0.57002  -0.56478
 Alpha  occ. eigenvalues --   -0.54990  -0.54091  -0.53848  -0.51765  -0.49093
 Alpha  occ. eigenvalues --   -0.42569  -0.40475  -0.39471  -0.38477
 Alpha virt. eigenvalues --    0.02514   0.03428   0.04286   0.04500   0.05580
 Alpha virt. eigenvalues --    0.05727   0.06409   0.06890   0.07313   0.07829
 Alpha virt. eigenvalues --    0.09021   0.09648   0.10452   0.11557   0.13088

 Mulliken atomic charges:
              1
     1  H   -0.018902
     2  C    0.276055
     3  H    0.048835
     4  H   -0.062534
     5  C    0.725497
     6  O   -0.745277
     7  N   -0.618311
     8  H   -0.046366
     9  C    0.116453
    10  H   -0.000709
    11  C    0.713813
    12  H   -0.014471
    13  H    0.024902
    14  H   -0.199468
    15  C    0.826488
    16  O   -0.808669
    17  N   -0.504588
    18  H   -0.126403
    19  C    0.769436
    20  H   -0.096452
    21  H   -0.202471
    22  H   -0.056857
 Sum of Mulliken atomic charges =   0.00000

 Dipole moment (field-independent basis, Debye):
    X=             -0.8316    Y=              5.9544    Z=              0.8851  Tot=              6.0770
 Quadrupole moment (field-independent basis, Debye-Ang):
   XX=            -46.6312   YY=            -65.0208   ZZ=            -62.4463
   XY=              2.9023   XZ=              6.4746   YZ=             -0.1502

 Normal termination of Gaussian 09 at Mon Feb 13 22:04:58 2017.
