 Gaussian 09, Revision A.02,
 Gaussian 09:  EM64L-G09RevA.02 11-Jun-2009

 -------------------
 #SP MP2/aug-cc-pVDZ
 -------------------

 -------------------------------
 Single Point calculation at MP2
 -------------------------------
 Symbolic Z-matrix:
 Charge =  0 Multiplicity = 1

                         Standard orientation:
 ---------------------------------------------------------------------
 Center     Atomic      Atomic             Coordinates (Angstroms)
 Number     Number       Type             X           Y           Z
 ---------------------------------------------------------------------
      1          1           0       -3.884912   -1.066267   -0.492497
      2          6           0       -3.370208   -0.423370    0.227303
      3          1           0       -3.581710   -0.818369    1.225903
      4          1           0       -3.776301    0.590132    0.155203
      5          6           0       -1.869509   -0.524780   -0.021897
      6          8           0       -1.337316   -1.636784   -0.019597
      7          7           0       -1.254401    0.667916   -0.249197
      8          1           0       -1.887596    1.454720   -0.209297
      9          6           0        0.143602    1.145407   -0.434497
     10          1           0        0.273003    1.316306   -1.514497
     11          6           0        0.248511    2.502806    0.272503
     12          1           0        0.094210    2.388907    1.350703
     13          1           0        1.242114    2.919100    0.110103
     14          1           0       -0.500384    3.203211   -0.118297
     15          6           0        1.385197    0.277299   -0.062397
     16          8           0        2.437301    0.875692    0.163003
     17          7           0        1.306188   -1.062601   -0.139597
     18          1           0        0.380585   -1.496995   -0.183597
     19          6           0        2.481983   -1.873608    0.129703
     20          1           0        3.307685   -1.577014   -0.524197
     21          1           0        2.822383   -1.764211    1.166803
     22          1           0        2.231076   -2.920507   -0.056297
 ---------------------------------------------------------------------

 SCF Done:  E(RHF) =  -492.910919692     A.U. after   14 cycles
 E2 =    -0.1605147780D+01 EUMP2 =    -0.49451606747228D+03

 The electronic state is 1-A.
 Alpha  occ. eigenvalues --  -20.54819 -20.51933 -15.61924 -15.57042 -11.38635
 Alpha  occ. eigenvalues --  -11.35395 -11.30758 -11.26051 -11.25411 -11.23785
 Alpha  occ. eigenvalues --   -1.40212  -1.37404  -1.25636  -1.21570  -1.06411
 Alpha  occ. eigenvalues --   -1.00056  -0.95029  -0.87735  -0.82228  -0.77018
 Alpha  occ. eigenvalues --   -0.71278  -0.70237  -0.67223  -0.63174  -0.62576
 Alpha  occ. eigenvalues --   -0.60816  -0.60217  -0.59516  -0.58064  -0.55802
 Alpha  occ. eigenvalues --   -0.54027  -0.53540  -0.52912  -0.52186  -0.50105
 Alpha  occ. eigenvalues --   -0.44032  -0.42613  -0.40409  -0.37593
 Alpha virt. eigenvalues --    0.02378   0.04051   0.04383   0.04505   0.05602
 Alpha virt. eigenvalues --    0.06272   0.06466   0.06701   0.07226   0.08013
 Alpha virt. eigenvalues --    0.09268   0.09520   0.11605   0.12062   0.12566

 Mulliken atomic charges:
              1
     1  H    0.039006
     2  C    0.467280
     3  H    0.042439
     4  H   -0.200854
     5  C    0.559441
     6  O   -0.940762
     7  N   -0.510635
     8  H   -0.029169
     9  C    0.145700
    10  H   -0.007507
    11  C    0.686232
    12  H   -0.050906
    13  H   -0.061707
    14  H   -0.074493
    15  C    0.685528
    16  O   -0.829138
    17  N   -0.285737
    18  H   -0.003080
    19  C    0.720206
    20  H   -0.082220
    21  H   -0.050033
    22  H   -0.219592
 Sum of Mulliken atomic charges =   0.00000

 Dipole moment (field-independent basis, Debye):
    X=             -4.6419    Y=              1.4483    Z=             -0.4355  Tot=              4.8820
 Quadrupole moment (field-independent basis, Debye-Ang):
   XX=            -61.3384   YY=            -61.5685   ZZ=            -60.8823
   XY=            -10.4946   XZ=             -1.3693   YZ=             -1.4220

 Normal termination of Gaussian 09 at Mon Feb 13 22:52:15 2017.
