 Gaussian 09, Revision A.02,
 Gaussian 09:  EM64L-G09RevA.02 11-Jun-2009

 -------------------
 #SP MP2/aug-cc-pVDZ
 -------------------

 -------------------------------
 Single Point calculation at MP2
 -------------------------------
 Symbolic Z-matrix:
 Charge =  0 Multiplicity = 1

                         Standard orientation:
 ---------------------------------------------------------------------
 Center     Atomic      Atomic             Coordinates (Angstroms)
 Number     Number       Type             X           Y           Z
 ---------------------------------------------------------------------
      1          1           0        3.481505   -1.581284   -0.795492
      2          6           0        3.262000   -0.695185   -0.196592
      3          1           0        3.758095    0.175118   -0.639192
      4          1           0        3.676901   -0.855582    0.805608
      5          6           0        1.749999   -0.539693   -0.090992
      6          8           0        0.999904   -1.505197   -0.073492
      7          7           0        1.310092    0.761605   -0.046692
      8          1           0        2.029088    1.472509    0.003808
      9          6           0       -0.012911    1.223297    0.404208
     10          1           0        0.078388    1.552898    1.446408
     11          6           0       -0.464517    2.413695   -0.450792
     12          1           0       -0.544216    2.147594   -1.509892
     13          1           0       -1.436119    2.784490   -0.110492
     14          1           0        0.257478    3.235999   -0.371092
     15          6           0       -1.058304    0.082492    0.504008
     16          8           0       -1.322302   -0.408810    1.590008
     17          7           0       -1.795603   -0.164312   -0.625392
     18          1           0       -1.343304    0.053690   -1.504392
     19          6           0       -2.682197   -1.321717   -0.641992
     20          1           0       -3.301497   -1.299521    0.255908
     21          1           0       -3.323097   -1.268221   -1.526192
     22          1           0       -2.119891   -2.264014   -0.649592
 ---------------------------------------------------------------------

 SCF Done:  E(RHF) =  -492.911364683     A.U. after   14 cycles
 E2 =    -0.1603361925D+01 EUMP2 =    -0.49451472660753D+03

 The electronic state is 1-A.
 Alpha  occ. eigenvalues --  -20.53474 -20.52244 -15.60557 -15.58217 -11.36908
 Alpha  occ. eigenvalues --  -11.35350 -11.29748 -11.25379 -11.25194 -11.24816
 Alpha  occ. eigenvalues --   -1.39163  -1.37433  -1.24487  -1.21883  -1.05989
 Alpha  occ. eigenvalues --   -0.99645  -0.94280  -0.88391  -0.80999  -0.76755
 Alpha  occ. eigenvalues --   -0.70548  -0.69008  -0.66301  -0.63436  -0.62084
 Alpha  occ. eigenvalues --   -0.61114  -0.59639  -0.57958  -0.57300  -0.56284
 Alpha  occ. eigenvalues --   -0.54709  -0.54033  -0.53041  -0.51568  -0.50345
 Alpha  occ. eigenvalues --   -0.42594  -0.41567  -0.40079  -0.38500
 Alpha virt. eigenvalues --    0.02430   0.03745   0.04031   0.04678   0.05568
 Alpha virt. eigenvalues --    0.05977   0.06297   0.06803   0.07374   0.08267
 Alpha virt. eigenvalues --    0.08540   0.09535   0.10730   0.11778   0.12589

 Mulliken atomic charges:
              1
     1  H   -0.000410
     2  C    0.412932
     3  H   -0.110304
     4  H    0.066782
     5  C    0.576962
     6  O   -0.821092
     7  N   -0.503618
     8  H   -0.098597
     9  C    0.213165
    10  H   -0.167733
    11  C    0.745120
    12  H   -0.057511
    13  H   -0.024785
    14  H   -0.106876
    15  C    1.123384
    16  O   -0.929369
    17  N   -0.627655
    18  H   -0.056291
    19  C    0.704820
    20  H   -0.107605
    21  H   -0.194951
    22  H   -0.036369
 Sum of Mulliken atomic charges =   0.00000

 Dipole moment (field-independent basis, Debye):
    X=              2.7981    Y=              3.9955    Z=             -3.2511  Tot=              5.8620
 Quadrupole moment (field-independent basis, Debye-Ang):
   XX=            -51.3884   YY=            -61.3045   ZZ=            -64.7016
   XY=              3.3485   XZ=              5.7710   YZ=              3.0207

 Normal termination of Gaussian 09 at Mon Feb 13 22:21:24 2017.
