 Gaussian 09, Revision A.02,
 Gaussian 09:  EM64L-G09RevA.02 11-Jun-2009

 -------------------
 #SP MP2/aug-cc-pVDZ
 -------------------

 -------------------------------
 Single Point calculation at MP2
 -------------------------------
 Symbolic Z-matrix:
 Charge =  0 Multiplicity = 1

                         Standard orientation:
 ---------------------------------------------------------------------
 Center     Atomic      Atomic             Coordinates (Angstroms)
 Number     Number       Type             X           Y           Z
 ---------------------------------------------------------------------
      1          1           0       -3.367517   -1.971273   -0.071297
      2          6           0       -3.084808   -0.979476    0.288003
      3          1           0       -3.172808   -0.982375    1.380603
      4          1           0       -3.781301   -0.236169   -0.113797
      5          6           0       -1.632806   -0.718890   -0.088597
      6          8           0       -0.790114   -1.607398   -0.070597
      7          7           0       -1.355293    0.569908   -0.465797
      8          1           0       -2.104887    1.240015   -0.353397
      9          6           0       -0.013788    1.165795   -0.554197
     10          1           0        0.264813    1.233092   -1.616297
     11          6           0       -0.035074    2.573295    0.043303
     12          1           0       -0.197775    2.512397    1.122403
     13          1           0        0.922431    3.073586   -0.130897
     14          1           0       -0.821868    3.182903   -0.417697
     15          6           0        1.061204    0.316285    0.172903
     16          8           0        1.213705    0.395383    1.383303
     17          7           0        1.889498   -0.394523   -0.650197
     18          1           0        1.489995   -0.649519   -1.544297
     19          6           0        2.796188   -1.372532   -0.063497
     20          1           0        3.315693   -0.907837    0.775803
     21          1           0        2.252880   -2.251027    0.307303
     22          1           0        3.526685   -1.682239   -0.815597
 ---------------------------------------------------------------------

 SCF Done:  E(RHF) =  -492.917613369     A.U. after   15 cycles
 E2 =    -0.1603461108D+01 EUMP2 =    -0.49452107447738D+03

 The electronic state is 1-A.
 Alpha  occ. eigenvalues --  -20.53456 -20.52570 -15.60431 -15.58194 -11.36857
 Alpha  occ. eigenvalues --  -11.35382 -11.29807 -11.25313 -11.25054 -11.24018
 Alpha  occ. eigenvalues --   -1.39195  -1.37595  -1.24397  -1.22073  -1.05778
 Alpha  occ. eigenvalues --   -0.99423  -0.94947  -0.87169  -0.80935  -0.76714
 Alpha  occ. eigenvalues --   -0.70159  -0.69433  -0.67138  -0.63056  -0.61923
 Alpha  occ. eigenvalues --   -0.61316  -0.59783  -0.58249  -0.57415  -0.54831
 Alpha  occ. eigenvalues --   -0.54046  -0.53478  -0.53349  -0.51278  -0.50135
 Alpha  occ. eigenvalues --   -0.42863  -0.42704  -0.39871  -0.38358
 Alpha virt. eigenvalues --    0.02669   0.03802   0.04224   0.04793   0.05598
 Alpha virt. eigenvalues --    0.06115   0.06577   0.06947   0.07412   0.08264
 Alpha virt. eigenvalues --    0.09000   0.09293   0.11097   0.12045   0.12464

 Mulliken atomic charges:
              1
     1  H    0.002385
     2  C    0.400305
     3  H    0.065818
     4  H   -0.113460
     5  C    0.626243
     6  O   -0.858476
     7  N   -0.465756
     8  H   -0.042512
     9  C   -0.084752
    10  H   -0.266576
    11  C    0.670436
    12  H    0.032197
    13  H   -0.047704
    14  H   -0.055353
    15  C    1.203819
    16  O   -0.907233
    17  N   -0.511495
    18  H   -0.045783
    19  C    0.728003
    20  H   -0.107737
    21  H   -0.033043
    22  H   -0.189327
 Sum of Mulliken atomic charges =   0.00000

 Dipole moment (field-independent basis, Debye):
    X=             -2.6401    Y=              2.0420    Z=             -3.0875  Tot=              4.5467
 Quadrupole moment (field-independent basis, Debye-Ang):
   XX=            -50.9111   YY=            -61.0788   ZZ=            -64.1036
   XY=             -4.6152   XZ=             -4.8304   YZ=             -0.9330

 Normal termination of Gaussian 09 at Mon Feb 13 22:02:16 2017.
