 Gaussian 09, Revision A.02,
 Gaussian 09:  EM64L-G09RevA.02 11-Jun-2009

 -------------------
 #SP MP2/aug-cc-pVDZ
 -------------------

 -------------------------------
 Single Point calculation at MP2
 -------------------------------
 Symbolic Z-matrix:
 Charge =  0 Multiplicity = 1

                         Standard orientation:
 ---------------------------------------------------------------------
 Center     Atomic      Atomic             Coordinates (Angstroms)
 Number     Number       Type             X           Y           Z
 ---------------------------------------------------------------------
      1          1           0       -3.829111   -1.403105    0.264212
      2          6           0       -2.825110   -1.604303   -0.114988
      3          1           0       -2.888110   -1.896303   -1.168788
      4          1           0       -2.415508   -2.447102    0.454512
      5          6           0       -1.961213   -0.369001    0.125812
      6          8           0       -2.118415    0.345299    1.101612
      7          7           0       -1.019914   -0.144499   -0.858188
      8          1           0       -0.910712   -0.886698   -1.535488
      9          6           0        0.104384    0.802904   -0.784488
     10          1           0        0.492184    0.856605   -1.810888
     11          6           0       -0.308919    2.208503   -0.348188
     12          1           0       -0.611219    2.205302    0.697512
     13          1           0        0.538579    2.891105   -0.475888
     14          1           0       -1.141220    2.563501   -0.963488
     15          6           0        1.220385    0.245907    0.134712
     16          8           0        1.239685    0.437307    1.340712
     17          7           0        2.157987   -0.512591   -0.518688
     18          1           0        2.125087   -0.564691   -1.526388
     19          6           0        3.275789   -1.135388    0.168712
     20          1           0        3.142588   -0.947689    1.235012
     21          1           0        3.295791   -2.217188   -0.007988
     22          1           0        4.233088   -0.706686   -0.152188
 ---------------------------------------------------------------------

 SCF Done:  E(RHF) =  -492.911542848     A.U. after   14 cycles
 E2 =    -0.1602495217D+01 EUMP2 =    -0.49451403806566D+03

 The electronic state is 1-A.
 Alpha  occ. eigenvalues --  -20.52986 -20.52720 -15.60132 -15.60040 -11.36169
 Alpha  occ. eigenvalues --  -11.35870 -11.29916 -11.27071 -11.24629 -11.21963
 Alpha  occ. eigenvalues --   -1.38697  -1.37900  -1.24315  -1.22966  -1.05286
 Alpha  occ. eigenvalues --   -0.98817  -0.96057  -0.87448  -0.80313  -0.77283
 Alpha  occ. eigenvalues --   -0.71660  -0.69773  -0.65241  -0.64199  -0.62224
 Alpha  occ. eigenvalues --   -0.61532  -0.59875  -0.58847  -0.56253  -0.55146
 Alpha  occ. eigenvalues --   -0.54752  -0.52798  -0.51449  -0.51240  -0.50824
 Alpha  occ. eigenvalues --   -0.44484  -0.41582  -0.39549  -0.38334
 Alpha virt. eigenvalues --    0.01896   0.03591   0.03788   0.04570   0.05449
 Alpha virt. eigenvalues --    0.05899   0.06272   0.06652   0.07444   0.07654
 Alpha virt. eigenvalues --    0.08758   0.09738   0.10646   0.12171   0.12550

 Mulliken atomic charges:
              1
     1  H   -0.009056
     2  C    0.371882
     3  H   -0.093475
     4  H    0.056722
     5  C    0.646411
     6  O   -0.780738
     7  N   -0.374536
     8  H   -0.086125
     9  C   -0.191007
    10  H   -0.351075
    11  C    0.704086
    12  H    0.092105
    13  H   -0.051513
    14  H    0.006483
    15  C    1.091474
    16  O   -0.796869
    17  N   -0.486848
    18  H   -0.130837
    19  C    0.739041
    20  H   -0.144849
    21  H   -0.114057
    22  H   -0.097219
 Sum of Mulliken atomic charges =   0.00000

 Dipole moment (field-independent basis, Debye):
    X=              1.8128    Y=             -3.0336    Z=             -6.3073  Tot=              7.2299
 Quadrupole moment (field-independent basis, Debye-Ang):
   XX=            -57.1407   YY=            -57.3927   ZZ=            -64.5128
   XY=              2.2421   XZ=              0.2018   YZ=             -1.3642

 Normal termination of Gaussian 09 at Tue Feb 14 05:38:51 2017.
