 Gaussian 09, Revision A.02,
 Gaussian 09:  EM64L-G09RevA.02 11-Jun-2009

 -------------------
 #SP MP2/aug-cc-pVDZ
 -------------------

 -------------------------------
 Single Point calculation at MP2
 -------------------------------
 Symbolic Z-matrix:
 Charge =  0 Multiplicity = 1

                         Standard orientation:
 ---------------------------------------------------------------------
 Center     Atomic      Atomic             Coordinates (Angstroms)
 Number     Number       Type             X           Y           Z
 ---------------------------------------------------------------------
      1          1           0       -3.314994   -1.942592    0.714208
      2          6           0       -3.095291   -1.269993   -0.117792
      3          1           0       -3.955389   -0.601289   -0.240492
      4          1           0       -2.978194   -1.855993   -1.035492
      5          6           0       -1.863988   -0.443898    0.239108
      6          8           0       -1.649586   -0.053799    1.375008
      7          7           0       -1.017287   -0.188902   -0.818992
      8          1           0       -1.378288   -0.414500   -1.736092
      9          6           0        0.062918    0.816093   -0.789692
     10          1           0        0.410618    0.881192   -1.827692
     11          6           0       -0.389376    2.199695   -0.321592
     12          1           0       -0.689477    2.162897    0.725408
     13          1           0        0.434627    2.913092   -0.419892
     14          1           0       -1.228975    2.547299   -0.933592
     15          6           0        1.264515    0.310988    0.051908
     16          8           0        1.571518    0.797287    1.127608
     17          7           0        2.022311   -0.642115   -0.582092
     18          1           0        1.591309   -1.129813   -1.356392
     19          6           0        3.108008   -1.320320    0.108908
     20          1           0        3.536311   -0.618522    0.825708
     21          1           0        2.765705   -2.208318    0.657408
     22          1           0        3.875407   -1.619623   -0.611492
 ---------------------------------------------------------------------

 SCF Done:  E(RHF) =  -492.913637231     A.U. after   14 cycles
 E2 =    -0.1602376818D+01 EUMP2 =    -0.49451601404932D+03

 The electronic state is 1-A.
 Alpha  occ. eigenvalues --  -20.53342 -20.52793 -15.60523 -15.59107 -11.36600
 Alpha  occ. eigenvalues --  -11.35442 -11.29817 -11.26436 -11.25170 -11.22077
 Alpha  occ. eigenvalues --   -1.38955  -1.37982  -1.24483  -1.22385  -1.05276
 Alpha  occ. eigenvalues --   -0.99214  -0.95529  -0.87368  -0.80495  -0.76921
 Alpha  occ. eigenvalues --   -0.71012  -0.69801  -0.64838  -0.64448  -0.62036
 Alpha  occ. eigenvalues --   -0.61193  -0.60130  -0.58768  -0.56855  -0.55898
 Alpha  occ. eigenvalues --   -0.54291  -0.52591  -0.51954  -0.51175  -0.50597
 Alpha  occ. eigenvalues --   -0.43805  -0.42039  -0.39414  -0.38858
 Alpha virt. eigenvalues --    0.01949   0.03615   0.03754   0.04547   0.05669
 Alpha virt. eigenvalues --    0.05864   0.06223   0.06542   0.07365   0.07906
 Alpha virt. eigenvalues --    0.08801   0.09376   0.10602   0.12094   0.12551

 Mulliken atomic charges:
              1
     1  H    0.007385
     2  C    0.347554
     3  H    0.055233
     4  H   -0.102107
     5  C    0.666265
     6  O   -0.791497
     7  N   -0.379900
     8  H   -0.129417
     9  C   -0.215862
    10  H   -0.212501
    11  C    0.704178
    12  H    0.068974
    13  H   -0.074942
    14  H   -0.000871
    15  C    1.052127
    16  O   -0.776121
    17  N   -0.521624
    18  H   -0.087802
    19  C    0.745087
    20  H   -0.116702
    21  H   -0.077221
    22  H   -0.160235
 Sum of Mulliken atomic charges =   0.00000

 Dipole moment (field-independent basis, Debye):
    X=             -1.1691    Y=             -2.6593    Z=             -6.4861  Tot=              7.1069
 Quadrupole moment (field-independent basis, Debye-Ang):
   XX=            -55.4597   YY=            -58.2141   ZZ=            -64.6350
   XY=             -2.0977   XZ=              2.1468   YZ=             -1.3016

 Normal termination of Gaussian 09 at Tue Feb 14 04:06:00 2017.
