 Gaussian 09, Revision A.02,
 Gaussian 09:  EM64L-G09RevA.02 11-Jun-2009

 -------------------
 #SP MP2/aug-cc-pVDZ
 -------------------

 -------------------------------
 Single Point calculation at MP2
 -------------------------------
 Symbolic Z-matrix:
 Charge =  0 Multiplicity = 1

                         Standard orientation:
 ---------------------------------------------------------------------
 Center     Atomic      Atomic             Coordinates (Angstroms)
 Number     Number       Type             X           Y           Z
 ---------------------------------------------------------------------
      1          1           0       -3.348004   -1.795463   -0.446197
      2          6           0       -3.216495   -0.711264   -0.489997
      3          1           0       -3.966491   -0.263157    0.171003
      4          1           0       -3.401092   -0.365662   -1.511897
      5          6           0       -1.832992   -0.364376    0.037203
      6          8           0       -1.404096   -0.863080    1.080703
      7          7           0       -1.110484    0.507218   -0.717697
      8          1           0       -1.540281    0.836021   -1.570297
      9          6           0        0.128822    1.200507   -0.321297
     10          1           0        0.319729    1.925505   -1.116297
     11          6           0       -0.019671    1.965508    1.005503
     12          1           0       -0.241277    1.279710    1.826303
     13          1           0        0.915434    2.491000    1.219303
     14          1           0       -0.828364    2.700715    0.933303
     15          6           0        1.417515    0.344095   -0.298797
     16          8           0        2.490419    0.889686   -0.539897
     17          7           0        1.277903   -0.977004   -0.018797
     18          1           0        0.409100   -1.259496    0.430103
     19          6           0        2.448995   -1.824914    0.133903
     20          1           0        3.198798   -1.524521   -0.599997
     21          1           0        2.897096   -1.739318    1.133303
     22          1           0        2.165786   -2.867012   -0.038697
 ---------------------------------------------------------------------

 SCF Done:  E(RHF) =  -492.923954390     A.U. after   14 cycles
 E2 =    -0.1603764757D+01 EUMP2 =    -0.49452771914722D+03

 The electronic state is 1-A.
 Alpha  occ. eigenvalues --  -20.54661 -20.52301 -15.61488 -15.57770 -11.38156
 Alpha  occ. eigenvalues --  -11.35123 -11.29917 -11.26108 -11.25701 -11.23367
 Alpha  occ. eigenvalues --   -1.40076  -1.37516  -1.25353  -1.21818  -1.06058
 Alpha  occ. eigenvalues --   -1.00218  -0.94815  -0.88637  -0.80915  -0.76875
 Alpha  occ. eigenvalues --   -0.72367  -0.70685  -0.65294  -0.63258  -0.62475
 Alpha  occ. eigenvalues --   -0.61282  -0.60248  -0.59254  -0.57820  -0.56389
 Alpha  occ. eigenvalues --   -0.54574  -0.54062  -0.52378  -0.51837  -0.49679
 Alpha  occ. eigenvalues --   -0.44097  -0.43787  -0.39856  -0.37931
 Alpha virt. eigenvalues --    0.02357   0.03961   0.04298   0.04468   0.05925
 Alpha virt. eigenvalues --    0.06078   0.06525   0.06794   0.07554   0.08141
 Alpha virt. eigenvalues --    0.09000   0.09750   0.10959   0.11707   0.12237

 Mulliken atomic charges:
              1
     1  H    0.031176
     2  C    0.431858
     3  H    0.055986
     4  H   -0.116253
     5  C    0.605515
     6  O   -0.890677
     7  N   -0.092542
     8  H   -0.141410
     9  C   -0.384123
    10  H   -0.119558
    11  C    0.750018
    12  H   -0.001892
    13  H   -0.062552
    14  H   -0.066909
    15  C    1.069841
    16  O   -0.903875
    17  N   -0.517301
    18  H   -0.049187
    19  C    0.761521
    20  H   -0.127138
    21  H   -0.057710
    22  H   -0.174788
 Sum of Mulliken atomic charges =   0.00000

 Dipole moment (field-independent basis, Debye):
    X=             -4.4677    Y=             -0.1032    Z=             -1.8568  Tot=              4.8393
 Quadrupole moment (field-independent basis, Debye-Ang):
   XX=            -63.3162   YY=            -58.8443   ZZ=            -62.0268
   XY=             -8.0215   XZ=              8.8590   YZ=              1.4450

 Normal termination of Gaussian 09 at Tue Feb 14 04:37:32 2017.
