 Gaussian 09, Revision A.02,
 Gaussian 09:  EM64L-G09RevA.02 11-Jun-2009

 -------------------
 #SP MP2/aug-cc-pVDZ
 -------------------

 -------------------------------
 Single Point calculation at MP2
 -------------------------------
 Symbolic Z-matrix:
 Charge =  0 Multiplicity = 1

                         Standard orientation:
 ---------------------------------------------------------------------
 Center     Atomic      Atomic             Coordinates (Angstroms)
 Number     Number       Type             X           Y           Z
 ---------------------------------------------------------------------
      1          1           0       -3.980515   -1.006177    0.421714
      2          6           0       -3.117515   -1.130881   -0.234386
      3          1           0       -3.434315   -1.039880   -1.279086
      4          1           0       -2.710420   -2.138083   -0.084586
      5          6           0       -2.055511   -0.109686    0.149914
      6          8           0       -2.006509    0.389414    1.263114
      7          7           0       -1.186409    0.209510   -0.877986
      8          1           0       -1.206012   -0.444090   -1.650786
      9          6           0        0.125493    0.806405   -0.663686
     10          1           0        0.483995    1.090903   -1.663086
     11          6           0        0.097499    2.083705    0.193014
     12          1           0       -0.150802    1.860206    1.229214
     13          1           0        1.069201    2.589300    0.149014
     14          1           0       -0.657798    2.771008   -0.199886
     15          6           0        1.115389   -0.264400   -0.128986
     16          8           0        0.741784   -1.363198    0.257514
     17          7           0        2.431190    0.098594   -0.199686
     18          1           0        2.656594    1.043993   -0.474886
     19          6           0        3.504686   -0.746710    0.295014
     20          1           0        3.073482   -1.723908    0.515314
     21          1           0        4.289686   -0.859414   -0.461086
     22          1           0        3.950988   -0.340912    1.211514
 ---------------------------------------------------------------------

 SCF Done:  E(RHF) =  -492.917822608     A.U. after   14 cycles
 E2 =    -0.1600708998D+01 EUMP2 =    -0.49451853160526D+03

 The electronic state is 1-A.
 Alpha  occ. eigenvalues --  -20.53397 -20.52472 -15.59874 -15.58934 -11.36091
 Alpha  occ. eigenvalues --  -11.35587 -11.29792 -11.27076 -11.23723 -11.23407
 Alpha  occ. eigenvalues --   -1.38994  -1.37597  -1.23673  -1.23201  -1.05293
 Alpha  occ. eigenvalues --   -0.98534  -0.95606  -0.88206  -0.79931  -0.76678
 Alpha  occ. eigenvalues --   -0.71653  -0.69636  -0.65550  -0.62955  -0.62244
 Alpha  occ. eigenvalues --   -0.61851  -0.59273  -0.58400  -0.56285  -0.55782
 Alpha  occ. eigenvalues --   -0.54942  -0.53481  -0.53208  -0.50423  -0.50373
 Alpha  occ. eigenvalues --   -0.43504  -0.41494  -0.39557  -0.39059
 Alpha virt. eigenvalues --    0.02500   0.03731   0.04286   0.04597   0.05730
 Alpha virt. eigenvalues --    0.05966   0.06250   0.06950   0.07638   0.08245
 Alpha virt. eigenvalues --    0.08686   0.09031   0.11424   0.11711   0.12729

 Mulliken atomic charges:
              1
     1  H   -0.036762
     2  C    0.333682
     3  H   -0.034038
     4  H    0.072144
     5  C    0.721321
     6  O   -0.827310
     7  N   -0.459568
     8  H   -0.064164
     9  C   -0.159896
    10  H   -0.164951
    11  C    0.697862
    12  H    0.055403
    13  H   -0.136121
    14  H   -0.023865
    15  C    1.100659
    16  O   -0.818047
    17  N   -0.513592
    18  H   -0.111934
    19  C    0.731897
    20  H   -0.144625
    21  H   -0.127690
    22  H   -0.090405
 Sum of Mulliken atomic charges =   0.00000

 Dipole moment (field-independent basis, Debye):
    X=              2.6452    Y=              1.4096    Z=             -4.0196  Tot=              5.0141
 Quadrupole moment (field-independent basis, Debye-Ang):
   XX=            -51.2596   YY=            -61.8856   ZZ=            -63.1462
   XY=              7.2390   XZ=              5.4700   YZ=              0.0748

 Normal termination of Gaussian 09 at Tue Feb 14 03:05:27 2017.
