 Gaussian 09, Revision A.02,
 Gaussian 09:  EM64L-G09RevA.02 11-Jun-2009

 -------------------
 #SP MP2/aug-cc-pVDZ
 -------------------

 -------------------------------
 Single Point calculation at MP2
 -------------------------------
 Symbolic Z-matrix:
 Charge =  0 Multiplicity = 1

                         Standard orientation:
 ---------------------------------------------------------------------
 Center     Atomic      Atomic             Coordinates (Angstroms)
 Number     Number       Type             X           Y           Z
 ---------------------------------------------------------------------
      1          1           0       -3.411505   -1.800369   -0.169917
      2          6           0       -3.223698   -0.748571   -0.398217
      3          1           0       -3.953795   -0.153166    0.161883
      4          1           0       -3.382397   -0.574970   -1.467217
      5          6           0       -1.825096   -0.385679    0.076983
      6          8           0       -1.375699   -0.805982    1.143783
      7          7           0       -1.100591    0.408816   -0.761617
      8          1           0       -1.555989    0.699519   -1.615317
      9          6           0        0.114414    1.162408   -0.405517
     10          1           0        0.320418    1.798107   -1.271517
     11          6           0       -0.086180    2.069410    0.820583
     12          1           0       -0.329784    1.474111    1.703783
     13          1           0        0.837323    2.623804    1.005883
     14          1           0       -0.898376    2.781615    0.639683
     15          6           0        1.415809    0.341300   -0.248417
     16          8           0        2.487612    0.936893   -0.286717
     17          7           0        1.299600   -1.009499   -0.137017
     18          1           0        0.418598   -1.346894    0.239083
     19          6           0        2.485495   -1.817207    0.108183
     20          1           0        3.296197   -1.452512   -0.524717
     21          1           0        2.818695   -1.762709    1.153283
     22          1           0        2.267788   -2.859005   -0.142617
 ---------------------------------------------------------------------

 SCF Done:  E(RHF) =  -492.922791562     A.U. after   14 cycles
 E2 =    -0.1603380366D+01 EUMP2 =    -0.49452617192878D+03

 The electronic state is 1-A.
 Alpha  occ. eigenvalues --  -20.54667 -20.52442 -15.61307 -15.58000 -11.38025
 Alpha  occ. eigenvalues --  -11.35261 -11.29945 -11.26106 -11.25741 -11.23127
 Alpha  occ. eigenvalues --   -1.40067  -1.37713  -1.25275  -1.21900  -1.05941
 Alpha  occ. eigenvalues --   -1.00147  -0.94870  -0.88442  -0.80831  -0.76845
 Alpha  occ. eigenvalues --   -0.72243  -0.70561  -0.65291  -0.63345  -0.62558
 Alpha  occ. eigenvalues --   -0.61363  -0.60274  -0.59256  -0.57816  -0.56137
 Alpha  occ. eigenvalues --   -0.54467  -0.54001  -0.52260  -0.51896  -0.49571
 Alpha  occ. eigenvalues --   -0.43990  -0.43784  -0.40130  -0.38120
 Alpha virt. eigenvalues --    0.02324   0.03910   0.04209   0.04532   0.05949
 Alpha virt. eigenvalues --    0.06147   0.06425   0.06767   0.07489   0.08189
 Alpha virt. eigenvalues --    0.09032   0.09517   0.11210   0.11742   0.12457

 Mulliken atomic charges:
              1
     1  H    0.020682
     2  C    0.407631
     3  H    0.055705
     4  H   -0.093658
     5  C    0.598779
     6  O   -0.861436
     7  N   -0.098808
     8  H   -0.140211
     9  C   -0.412781
    10  H   -0.067713
    11  C    0.746808
    12  H   -0.001769
    13  H   -0.048807
    14  H   -0.061383
    15  C    1.009897
    16  O   -0.891818
    17  N   -0.510275
    18  H   -0.051297
    19  C    0.764589
    20  H   -0.125289
    21  H   -0.056550
    22  H   -0.182297
 Sum of Mulliken atomic charges =   0.00000

 Dipole moment (field-independent basis, Debye):
    X=             -4.4715    Y=             -0.3914    Z=             -2.4861  Tot=              5.1311
 Quadrupole moment (field-independent basis, Debye-Ang):
   XX=            -62.7308   YY=            -58.8369   ZZ=            -62.1240
   XY=             -7.8400   XZ=              7.2666   YZ=              0.6921

 Normal termination of Gaussian 09 at Tue Feb 14 04:37:36 2017.
