 Gaussian 09, Revision A.02,
 Gaussian 09:  EM64L-G09RevA.02 11-Jun-2009

 -------------------
 #SP MP2/aug-cc-pVDZ
 -------------------

 -------------------------------
 Single Point calculation at MP2
 -------------------------------
 Symbolic Z-matrix:
 Charge =  0 Multiplicity = 1

                         Standard orientation:
 ---------------------------------------------------------------------
 Center     Atomic      Atomic             Coordinates (Angstroms)
 Number     Number       Type             X           Y           Z
 ---------------------------------------------------------------------
      1          1           0       -3.951004   -0.933734    0.631399
      2          6           0       -3.145903   -1.080729   -0.090501
      3          1           0       -3.537804   -0.967532   -1.107001
      4          1           0       -2.764596   -2.103226    0.018999
      5          6           0       -2.023310   -0.100121    0.217499
      6          8           0       -1.869013    0.386280    1.327999
      7          7           0       -1.219412    0.196384   -0.865901
      8          1           0       -1.279007   -0.474716   -1.621301
      9          6           0        0.104984    0.788593   -0.721901
     10          1           0        0.423683    1.034995   -1.744801
     11          6           0        0.110876    2.098493    0.082699
     12          1           0       -0.047223    1.917892    1.144899
     13          1           0        1.054472    2.637799   -0.066201
     14          1           0       -0.693529    2.747188   -0.276301
     15          6           0        1.107292   -0.290600   -0.224301
     16          8           0        0.774000   -1.461702   -0.096501
     17          7           0        2.389289    0.145208   -0.049801
     18          1           0        2.567882    1.138410   -0.073101
     19          6           0        3.452995   -0.730384    0.413999
     20          1           0        3.099602   -1.757287    0.313999
     21          1           0        4.353994   -0.594478   -0.193801
     22          1           0        3.702893   -0.544583    1.466199
 ---------------------------------------------------------------------

 SCF Done:  E(RHF) =  -492.919214171     A.U. after   14 cycles
 E2 =    -0.1600645242D+01 EUMP2 =    -0.49451985941246D+03

 The electronic state is 1-A.
 Alpha  occ. eigenvalues --  -20.53359 -20.52703 -15.59789 -15.58860 -11.36110
 Alpha  occ. eigenvalues --  -11.35674 -11.29769 -11.26982 -11.23797 -11.23613
 Alpha  occ. eigenvalues --   -1.39009  -1.37749  -1.23581  -1.23226  -1.05310
 Alpha  occ. eigenvalues --   -0.98621  -0.95488  -0.88468  -0.79922  -0.76552
 Alpha  occ. eigenvalues --   -0.71778  -0.69681  -0.65528  -0.63350  -0.61950
 Alpha  occ. eigenvalues --   -0.61756  -0.59464  -0.58419  -0.56167  -0.55900
 Alpha  occ. eigenvalues --   -0.54925  -0.53869  -0.53087  -0.50514  -0.50372
 Alpha  occ. eigenvalues --   -0.43224  -0.41734  -0.39573  -0.39356
 Alpha virt. eigenvalues --    0.02668   0.03783   0.04368   0.04651   0.05744
 Alpha virt. eigenvalues --    0.05982   0.06280   0.06804   0.07629   0.08210
 Alpha virt. eigenvalues --    0.08938   0.09114   0.11427   0.12088   0.12781

 Mulliken atomic charges:
              1
     1  H   -0.037665
     2  C    0.338867
     3  H   -0.028375
     4  H    0.070306
     5  C    0.704473
     6  O   -0.834970
     7  N   -0.472358
     8  H   -0.050053
     9  C   -0.010843
    10  H   -0.121345
    11  C    0.683828
    12  H    0.066199
    13  H   -0.139088
    14  H   -0.037194
    15  C    0.956122
    16  O   -0.819906
    17  N   -0.518162
    18  H   -0.097414
    19  C    0.721139
    20  H   -0.148743
    21  H   -0.142849
    22  H   -0.081970
 Sum of Mulliken atomic charges =   0.00000

 Dipole moment (field-independent basis, Debye):
    X=              2.1575    Y=              1.6591    Z=             -3.2136  Tot=              4.2113
 Quadrupole moment (field-independent basis, Debye-Ang):
   XX=            -50.6294   YY=            -62.3760   ZZ=            -63.3784
   XY=              7.3221   XZ=              6.3812   YZ=             -0.8384

 Normal termination of Gaussian 09 at Tue Feb 14 03:37:36 2017.
