 Gaussian 09, Revision A.02,
 Gaussian 09:  EM64L-G09RevA.02 11-Jun-2009

 -------------------
 #SP MP2/aug-cc-pVDZ
 -------------------

 -------------------------------
 Single Point calculation at MP2
 -------------------------------
 Symbolic Z-matrix:
 Charge =  0 Multiplicity = 1

                         Standard orientation:
 ---------------------------------------------------------------------
 Center     Atomic      Atomic             Coordinates (Angstroms)
 Number     Number       Type             X           Y           Z
 ---------------------------------------------------------------------
      1          1           0       -3.309026   -1.885477    0.364294
      2          6           0       -3.124122   -0.983578   -0.223106
      3          1           0       -3.918918   -0.265674    0.011394
      4          1           0       -3.182423   -1.225378   -1.289606
      5          6           0       -1.782419   -0.394185    0.192294
      6          8           0       -1.375719   -0.441387    1.344294
      7          7           0       -1.056516    0.182812   -0.827106
      8          1           0       -1.523715    0.279214   -1.718506
      9          6           0        0.093789    1.072606   -0.598406
     10          1           0        0.340491    1.472605   -1.590206
     11          6           0       -0.214405    2.254107    0.329894
     12          1           0       -0.508707    1.897809    1.318794
     13          1           0        0.681698    2.869303    0.430194
     14          1           0       -1.024702    2.861212   -0.088106
     15          6           0        1.384085    0.343399   -0.153306
     16          8           0        2.340988    0.994595    0.250194
     17          7           0        1.404078   -1.003801   -0.330306
     18          1           0        0.528576   -1.452396   -0.554706
     19          6           0        2.525974   -1.820506    0.094694
     20          1           0        3.376078   -1.156110    0.255494
     21          1           0        2.308672   -2.349105    1.031494
     22          1           0        2.779471   -2.555808   -0.676906
 ---------------------------------------------------------------------

 SCF Done:  E(RHF) =  -492.921252262     A.U. after   14 cycles
 E2 =    -0.1603184474D+01 EUMP2 =    -0.49452443673654D+03

 The electronic state is 1-A.
 Alpha  occ. eigenvalues --  -20.54447 -20.52182 -15.61096 -15.58632 -11.37555
 Alpha  occ. eigenvalues --  -11.35404 -11.29802 -11.26066 -11.25954 -11.22223
 Alpha  occ. eigenvalues --   -1.39879  -1.37641  -1.25183  -1.22149  -1.05544
 Alpha  occ. eigenvalues --   -0.99799  -0.95449  -0.87775  -0.80634  -0.77387
 Alpha  occ. eigenvalues --   -0.71936  -0.70232  -0.65554  -0.63522  -0.62364
 Alpha  occ. eigenvalues --   -0.61521  -0.60145  -0.59229  -0.57582  -0.55848
 Alpha  occ. eigenvalues --   -0.54235  -0.53733  -0.52035  -0.51542  -0.49966
 Alpha  occ. eigenvalues --   -0.43926  -0.43094  -0.39777  -0.38365
 Alpha virt. eigenvalues --    0.02136   0.03700   0.03926   0.04658   0.05785
 Alpha virt. eigenvalues --    0.06251   0.06303   0.06501   0.07326   0.08291
 Alpha virt. eigenvalues --    0.08710   0.09134   0.11633   0.11966   0.12111

 Mulliken atomic charges:
              1
     1  H    0.008585
     2  C    0.399600
     3  H    0.048693
     4  H   -0.102404
     5  C    0.599315
     6  O   -0.814198
     7  N   -0.098335
     8  H   -0.125119
     9  C   -0.451785
    10  H   -0.075327
    11  C    0.752163
    12  H   -0.010553
    13  H   -0.053250
    14  H   -0.039713
    15  C    1.060014
    16  O   -0.855049
    17  N   -0.502510
    18  H   -0.077845
    19  C    0.703753
    20  H   -0.145335
    21  H   -0.084046
    22  H   -0.136652
 Sum of Mulliken atomic charges =   0.00000

 Dipole moment (field-independent basis, Debye):
    X=             -3.9781    Y=             -1.8474    Z=             -4.4428  Tot=              6.2431
 Quadrupole moment (field-independent basis, Debye-Ang):
   XX=            -61.5540   YY=            -58.0289   ZZ=            -63.0149
   XY=             -6.0484   XZ=              4.3748   YZ=             -0.4356

 Normal termination of Gaussian 09 at Tue Feb 14 03:33:48 2017.
