 Gaussian 09, Revision A.02,
 Gaussian 09:  EM64L-G09RevA.02 11-Jun-2009

 -------------------
 #SP MP2/aug-cc-pVDZ
 -------------------

 -------------------------------
 Single Point calculation at MP2
 -------------------------------
 Symbolic Z-matrix:
 Charge =  0 Multiplicity = 1

                         Standard orientation:
 ---------------------------------------------------------------------
 Center     Atomic      Atomic             Coordinates (Angstroms)
 Number     Number       Type             X           Y           Z
 ---------------------------------------------------------------------
      1          1           0        2.863204   -2.177013   -0.147108
      2          6           0        3.084905   -1.116113    0.011292
      3          1           0        3.872005   -0.837013   -0.694408
      4          1           0        3.454005   -0.980613    1.032492
      5          6           0        1.838705   -0.300712   -0.303208
      6          8           0        1.405705   -0.199512   -1.446908
      7          7           0        1.249705    0.304888    0.775192
      8          1           0        1.509805   -0.024012    1.694192
      9          6           0       -0.033494    1.013288    0.689792
     10          1           0       -0.179894    1.447389    1.684992
     11          6           0       -0.022494    2.164588   -0.320608
     12          1           0        0.166906    1.815888   -1.336908
     13          1           0       -0.976094    2.701989   -0.282908
     14          1           0        0.774307    2.867988   -0.058508
     15          6           0       -1.170595   -0.034111    0.592892
     16          8           0       -1.342295   -0.820711    1.518092
     17          7           0       -1.956095    0.008689   -0.517908
     18          1           0       -1.598795    0.514089   -1.316508
     19          6           0       -2.981195   -0.995010   -0.757008
     20          1           0       -3.366296   -1.323310    0.209192
     21          1           0       -3.793395   -0.559910   -1.346808
     22          1           0       -2.583296   -1.870310   -1.287108
 ---------------------------------------------------------------------

 SCF Done:  E(RHF) =  -492.921393040     A.U. after   14 cycles
 E2 =    -0.1601793405D+01 EUMP2 =    -0.49452318644543D+03

 The electronic state is 1-A.
 Alpha  occ. eigenvalues --  -20.53431 -20.52839 -15.60072 -15.59234 -11.36721
 Alpha  occ. eigenvalues --  -11.35697 -11.29647 -11.26437 -11.24853 -11.23542
 Alpha  occ. eigenvalues --   -1.39011  -1.38010  -1.24072  -1.22934  -1.05619
 Alpha  occ. eigenvalues --   -0.99354  -0.95083  -0.89008  -0.80140  -0.76957
 Alpha  occ. eigenvalues --   -0.71870  -0.70105  -0.65234  -0.64376  -0.61867
 Alpha  occ. eigenvalues --   -0.61404  -0.59636  -0.58573  -0.56691  -0.55734
 Alpha  occ. eigenvalues --   -0.54843  -0.54530  -0.52663  -0.51229  -0.50716
 Alpha  occ. eigenvalues --   -0.43461  -0.42491  -0.39963  -0.38598
 Alpha virt. eigenvalues --    0.03121   0.03761   0.04251   0.04833   0.05831
 Alpha virt. eigenvalues --    0.05972   0.06311   0.06964   0.07519   0.07911
 Alpha virt. eigenvalues --    0.08945   0.09900   0.11084   0.11472   0.13197

 Mulliken atomic charges:
              1
     1  H    0.053029
     2  C    0.407686
     3  H    0.028411
     4  H   -0.119938
     5  C    0.597288
     6  O   -0.831283
     7  N   -0.406514
     8  H   -0.081333
     9  C   -0.090710
    10  H   -0.138319
    11  C    0.840480
    12  H    0.084615
    13  H   -0.036400
    14  H   -0.116756
    15  C    0.940637
    16  O   -0.897284
    17  N   -0.571122
    18  H   -0.054677
    19  C    0.743288
    20  H   -0.123264
    21  H   -0.163783
    22  H   -0.064050
 Sum of Mulliken atomic charges =   0.00000

 Dipole moment (field-independent basis, Debye):
    X=              0.9480    Y=              1.5750    Z=              0.1855  Tot=              1.8477
 Quadrupole moment (field-independent basis, Debye-Ang):
   XX=            -53.5663   YY=            -59.5635   ZZ=            -66.6036
   XY=             -3.5482   XZ=             11.3533   YZ=              2.7316

 Normal termination of Gaussian 09 at Tue Feb 14 04:17:04 2017.
