 Gaussian 09, Revision A.02,
 Gaussian 09:  EM64L-G09RevA.02 11-Jun-2009

 -------------------
 #SP MP2/aug-cc-pVDZ
 -------------------

 -------------------------------
 Single Point calculation at MP2
 -------------------------------
 Symbolic Z-matrix:
 Charge =  0 Multiplicity = 1

                         Standard orientation:
 ---------------------------------------------------------------------
 Center     Atomic      Atomic             Coordinates (Angstroms)
 Number     Number       Type             X           Y           Z
 ---------------------------------------------------------------------
      1          1           0       -3.253976   -1.792326   -0.691296
      2          6           0       -3.189983   -0.706326   -0.578996
      3          1           0       -3.965885   -0.405931    0.132904
      4          1           0       -3.395786   -0.232327   -1.543596
      5          6           0       -1.831685   -0.354717    0.007104
      6          8           0       -1.421681   -0.907414    1.031604
      7          7           0       -1.119591    0.586088   -0.668796
      8          1           0       -1.523693    0.940485   -1.523396
      9          6           0        0.133405    1.232396   -0.235296
     10          1           0        0.312800    2.027497   -0.961996
     11          6           0        0.019701    1.865095    1.161804
     12          1           0       -0.185294    1.108294    1.921504
     13          1           0        0.960297    2.369701    1.403804
     14          1           0       -0.787404    2.605490    1.178204
     15          6           0        1.406611    0.356504   -0.339896
     16          8           0        2.436107    0.849711   -0.792296
     17          7           0        1.296719   -0.917197    0.113004
     18          1           0        0.433820   -1.174602    0.589104
     19          6           0        2.436325   -1.815589    0.152504
     20          1           0        3.200822   -1.425184   -0.520796
     21          1           0        2.863825   -1.887887    1.161404
     22          1           0        2.138931   -2.817991   -0.173096
 ---------------------------------------------------------------------

 SCF Done:  E(RHF) =  -492.924305297     A.U. after   14 cycles
 E2 =    -0.1604030125D+01 EUMP2 =    -0.49452833542213D+03

 The electronic state is 1-A.
 Alpha  occ. eigenvalues --  -20.54637 -20.52179 -15.61588 -15.57665 -11.38198
 Alpha  occ. eigenvalues --  -11.35081 -11.29860 -11.26075 -11.25649 -11.23503
 Alpha  occ. eigenvalues --   -1.40054  -1.37369  -1.25378  -1.21800  -1.06113
 Alpha  occ. eigenvalues --   -1.00234  -0.94811  -0.88776  -0.80940  -0.76934
 Alpha  occ. eigenvalues --   -0.72406  -0.70727  -0.65336  -0.63254  -0.62480
 Alpha  occ. eigenvalues --   -0.61185  -0.60248  -0.59094  -0.57769  -0.56688
 Alpha  occ. eigenvalues --   -0.54572  -0.54026  -0.52485  -0.51650  -0.50095
 Alpha  occ. eigenvalues --   -0.44308  -0.43652  -0.39521  -0.37775
 Alpha virt. eigenvalues --    0.02406   0.04010   0.04376   0.04417   0.05815
 Alpha virt. eigenvalues --    0.06070   0.06593   0.06802   0.07513   0.08172
 Alpha virt. eigenvalues --    0.08936   0.09975   0.10773   0.11637   0.12174

 Mulliken atomic charges:
              1
     1  H    0.038686
     2  C    0.450703
     3  H    0.052565
     4  H   -0.129774
     5  C    0.599564
     6  O   -0.902298
     7  N   -0.080592
     8  H   -0.140837
     9  C   -0.338822
    10  H   -0.165674
    11  C    0.795669
    12  H   -0.025136
    13  H   -0.066202
    14  H   -0.081918
    15  C    1.078080
    16  O   -0.883291
    17  N   -0.533264
    18  H   -0.040982
    19  C    0.734828
    20  H   -0.149092
    21  H   -0.076880
    22  H   -0.135334
 Sum of Mulliken atomic charges =   0.00000

 Dipole moment (field-independent basis, Debye):
    X=             -4.3144    Y=              0.0733    Z=             -1.3026  Tot=              4.5073
 Quadrupole moment (field-independent basis, Debye-Ang):
   XX=            -63.1635   YY=            -58.8893   ZZ=            -62.4406
   XY=             -7.8886   XZ=             10.3233   YZ=              2.2527

 Normal termination of Gaussian 09 at Tue Feb 14 04:30:17 2017.
