 Gaussian 09, Revision A.02,
 Gaussian 09:  EM64L-G09RevA.02 11-Jun-2009

 -------------------
 #SP MP2/aug-cc-pVDZ
 -------------------

 -------------------------------
 Single Point calculation at MP2
 -------------------------------
 Symbolic Z-matrix:
 Charge =  0 Multiplicity = 1

                         Standard orientation:
 ---------------------------------------------------------------------
 Center     Atomic      Atomic             Coordinates (Angstroms)
 Number     Number       Type             X           Y           Z
 ---------------------------------------------------------------------
      1          1           0       -3.083619   -1.883683   -0.853988
      2          6           0       -3.112812   -0.809183   -0.651688
      3          1           0       -3.919611   -0.634477    0.067612
      4          1           0       -3.345808   -0.275681   -1.578288
      5          6           0       -1.795609   -0.395692   -0.014788
      6          8           0       -1.362613   -0.979195    0.982212
      7          7           0       -1.151402    0.646204   -0.607388
      8          1           0       -1.541099    1.018007   -1.460988
      9          6           0        0.093402    1.270596   -0.120888
     10          1           0        0.250608    2.132694   -0.772988
     11          6           0       -0.008594    1.765296    1.327812
     12          1           0       -0.195700    0.948597    2.025612
     13          1           0        0.925709    2.262590    1.608512
     14          1           0       -0.825089    2.490302    1.417012
     15          6           0        1.331196    0.382087   -0.405788
     16          8           0        2.137598    0.701182   -1.273888
     17          7           0        1.465289   -0.703814    0.401512
     18          1           0        0.636087   -0.988808    0.919112
     19          6           0        2.534082   -1.665821    0.194512
     20          1           0        3.416986   -1.133527   -0.163188
     21          1           0        2.765579   -2.163023    1.140912
     22          1           0        2.268877   -2.429319   -0.549788
 ---------------------------------------------------------------------

 SCF Done:  E(RHF) =  -492.924242844     A.U. after   14 cycles
 E2 =    -0.1603743592D+01 EUMP2 =    -0.49452798643666D+03

 The electronic state is 1-A.
 Alpha  occ. eigenvalues --  -20.54473 -20.52538 -15.61508 -15.57672 -11.38024
 Alpha  occ. eigenvalues --  -11.35060 -11.29754 -11.25908 -11.25695 -11.23530
 Alpha  occ. eigenvalues --   -1.39879  -1.37552  -1.25216  -1.21858  -1.06043
 Alpha  occ. eigenvalues --   -1.00129  -0.94626  -0.88950  -0.80935  -0.76651
 Alpha  occ. eigenvalues --   -0.72131  -0.70650  -0.65389  -0.63601  -0.62595
 Alpha  occ. eigenvalues --   -0.61307  -0.60150  -0.58414  -0.57561  -0.56583
 Alpha  occ. eigenvalues --   -0.54503  -0.53911  -0.52391  -0.51523  -0.50913
 Alpha  occ. eigenvalues --   -0.44322  -0.43545  -0.39479  -0.37944
 Alpha virt. eigenvalues --    0.02564   0.04004   0.04258   0.04567   0.05761
 Alpha virt. eigenvalues --    0.05996   0.06585   0.06736   0.07367   0.08261
 Alpha virt. eigenvalues --    0.08848   0.10162   0.11053   0.11595   0.12100

 Mulliken atomic charges:
              1
     1  H    0.038961
     2  C    0.449732
     3  H    0.051068
     4  H   -0.131679
     5  C    0.614981
     6  O   -0.891779
     7  N   -0.209749
     8  H   -0.123752
     9  C   -0.157349
    10  H   -0.224768
    11  C    0.849775
    12  H   -0.051277
    13  H   -0.044480
    14  H   -0.075119
    15  C    0.865575
    16  O   -0.827738
    17  N   -0.514273
    18  H   -0.020972
    19  C    0.763879
    20  H   -0.127289
    21  H   -0.160264
    22  H   -0.073486
 Sum of Mulliken atomic charges =   0.00000

 Dipole moment (field-independent basis, Debye):
    X=             -3.7579    Y=              0.4179    Z=             -0.3174  Tot=              3.7944
 Quadrupole moment (field-independent basis, Debye-Ang):
   XX=            -60.2997   YY=            -58.5699   ZZ=            -64.7484
   XY=             -6.3738   XZ=             11.8887   YZ=              2.9611

 Normal termination of Gaussian 09 at Tue Feb 14 04:24:06 2017.
