 Gaussian 09, Revision A.02,
 Gaussian 09:  EM64L-G09RevA.02 11-Jun-2009

 -------------------------------------------------------------------
 # HF/6-31G* Opt=(ModRedundant, maxcycles=1000, calcfc) geom=nocrowd
 -------------------------------------------------------------------

 ------------------
 Phi Psi fixed scan
 ------------------
 Symbolic Z-matrix:
 Charge =  0 Multiplicity = 1

 SCF Done:  E(RHF) =  -984.518023682     A.U. after   15 cycles

  Exact polarizability:   0.000   0.000   0.000   0.000   0.000   0.000
 Approx polarizability: 125.953  -0.484 127.564   1.043  15.094 134.728

 SCF Done:  E(RHF) =  -984.531403870     A.U. after   13 cycles
 SCF Done:  E(RHF) =  -984.545326307     A.U. after   14 cycles
 SCF Done:  E(RHF) =  -984.547590639     A.U. after   15 cycles
 SCF Done:  E(RHF) =  -984.550654003     A.U. after   13 cycles
 SCF Done:  E(RHF) =  -984.553138280     A.U. after   13 cycles
 SCF Done:  E(RHF) =  -984.548756408     A.U. after   14 cycles
 SCF Done:  E(RHF) =  -984.554596634     A.U. after   13 cycles
 SCF Done:  E(RHF) =  -984.554985863     A.U. after   13 cycles
 SCF Done:  E(RHF) =  -984.555214306     A.U. after   12 cycles
 SCF Done:  E(RHF) =  -984.555438083     A.U. after    7 cycles
 SCF Done:  E(RHF) =  -984.555438135     A.U. after    7 cycles
 SCF Done:  E(RHF) =  -984.555438262     A.U. after    8 cycles
 SCF Done:  E(RHF) =  -984.555438471     A.U. after    8 cycles
 SCF Done:  E(RHF) =  -984.555438833     A.U. after    9 cycles
 SCF Done:  E(RHF) =  -984.555439937     A.U. after   10 cycles
 SCF Done:  E(RHF) =  -984.555441314     A.U. after   10 cycles
 SCF Done:  E(RHF) =  -984.555441647     A.U. after   10 cycles
 SCF Done:  E(RHF) =  -984.555441703     A.U. after    9 cycles
 SCF Done:  E(RHF) =  -984.555441709     A.U. after    7 cycles
 Optimization completed.
    -- Stationary point found.

                         Standard orientation:
 ---------------------------------------------------------------------
 Center     Atomic      Atomic             Coordinates (Angstroms)
 Number     Number       Type             X           Y           Z
 ---------------------------------------------------------------------
      1          1           0       -6.167173   -2.557604    1.134030
      2          6           0       -5.168107   -2.263083    1.427120
      3          1           0       -4.660121   -3.143955    1.804050
      4          1           0       -5.225116   -1.526419    2.219088
      5          6           0       -4.429294   -1.769623    0.202296
      6          8           0       -4.458746   -2.372937   -0.838824
      7          7           0       -3.725776   -0.629746    0.359023
      8          1           0       -3.691658   -0.158557    1.234986
      9          6           0       -2.921160   -0.074157   -0.700112
     10          1           0       -2.432023   -0.888583   -1.220151
     11          6           0       -3.763438    0.725187   -1.704785
     12          1           0       -4.252149    1.557065   -1.209366
     13          1           0       -3.154713    1.115400   -2.514763
     14          1           0       -4.517613    0.076080   -2.128756
     15          6           0       -1.872503    0.828563   -0.054006
     16          8           0       -2.038333    1.294152    1.039625
     17          7           0       -0.768187    1.046493   -0.808804
     18          1           0       -0.782745    0.653586   -1.722647
     19          6           0        0.216844    2.108776   -0.589792
     20          1           0        0.683233    2.251614   -1.559100
     21          6           0       -0.364313    3.445366   -0.143043
     22          1           0       -0.755151    3.393587    0.859124
     23          1           0        0.415854    4.195969   -0.170162
     24          1           0       -1.155287    3.744824   -0.822677
     25          6           0        1.338863    1.628312    0.343892
     26          8           0        1.623407    2.206793    1.356196
     27          7           0        2.033237    0.563992   -0.109686
     28          1           0        1.712798    0.041597   -0.894104
     29          6           0        3.091455   -0.048297    0.657186
     30          1           0        3.720081    0.740520    1.050327
     31          6           0        2.563457   -0.897124    1.822178
     32          1           0        1.942161   -1.703503    1.447951
     33          1           0        3.379366   -1.328543    2.393120
     34          1           0        1.973328   -0.274881    2.481540
     35          6           0        3.889247   -0.922966   -0.305184
     36          8           0        3.378297   -1.400035   -1.285983
     37          7           0        5.165841   -1.161048    0.041517
     38          1           0        5.557456   -0.666787    0.809061
     39          6           0        6.030821   -1.999194   -0.763305
     40          1           0        5.537357   -2.934209   -0.986441
     41          1           0        6.293857   -1.517968   -1.698121
     42          1           0        6.934208   -2.201407   -0.204114
 ---------------------------------------------------------------------

 The electronic state is 1-A.
 Alpha  occ. eigenvalues --  -20.54290 -20.53741 -20.52763 -20.51571 -15.60491
 Alpha  occ. eigenvalues --  -15.59962 -15.58260 -15.58051 -11.36258 -11.35707
 Alpha  occ. eigenvalues --  -11.34761 -11.34449 -11.29172 -11.28463 -11.28430
 Alpha  occ. eigenvalues --  -11.26795 -11.22849 -11.22773 -11.22496 -11.21363
 Alpha  occ. eigenvalues --   -1.41307  -1.40743  -1.39440  -1.38489  -1.25872
 Alpha  occ. eigenvalues --   -1.24706  -1.23785  -1.23574  -1.07399  -1.05062
 Alpha  occ. eigenvalues --   -1.02754  -0.98817  -0.96759  -0.91978  -0.89981
 Alpha  occ. eigenvalues --   -0.86810  -0.81716  -0.79866  -0.78929  -0.78388
 Alpha  occ. eigenvalues --   -0.74681  -0.72862  -0.68800  -0.67603  -0.67031
 Alpha  occ. eigenvalues --   -0.66419  -0.64764  -0.64187  -0.64106  -0.63275
 Alpha  occ. eigenvalues --   -0.61624  -0.61486  -0.60512  -0.59187  -0.58861
 Alpha  occ. eigenvalues --   -0.58291  -0.56900  -0.56513  -0.56116  -0.55398
 Alpha  occ. eigenvalues --   -0.54932  -0.54228  -0.53419  -0.53248  -0.52826
 Alpha  occ. eigenvalues --   -0.52331  -0.51828  -0.50670  -0.49611  -0.44783
 Alpha  occ. eigenvalues --   -0.43146  -0.42937  -0.41371  -0.40581  -0.39513
 Alpha  occ. eigenvalues --   -0.38632  -0.38429
 Alpha virt. eigenvalues --    0.17150   0.18558   0.19005   0.20830   0.21006
 Alpha virt. eigenvalues --    0.21837   0.24004   0.25636   0.26028   0.26581
 Alpha virt. eigenvalues --    0.27743   0.28148   0.29336   0.29906   0.30884

 Mulliken atomic charges:
              1
     1  H    0.207194
     2  C   -0.575107
     3  H    0.204237
     4  H    0.173650
     5  C    0.756678
     6  O   -0.622563
     7  N   -0.823823
     8  H    0.420360
     9  C   -0.040092
    10  H    0.219590
    11  C   -0.488526
    12  H    0.179990
    13  H    0.152328
    14  H    0.216831
    15  C    0.799788
    16  O   -0.615749
    17  N   -0.840870
    18  H    0.391959
    19  C   -0.060921
    20  H    0.201450
    21  C   -0.480923
    22  H    0.236056
    23  H    0.177147
    24  H    0.157162
    25  C    0.819364
    26  O   -0.615326
    27  N   -0.829914
    28  H    0.412153
    29  C   -0.032337
    30  H    0.210409
    31  C   -0.491391
    32  H    0.179413
    33  H    0.160342
    34  H    0.216725
    35  C    0.780684
    36  O   -0.634126
    37  N   -0.799825
    38  H    0.390639
    39  C   -0.272745
    40  H    0.203101
    41  H    0.184553
    42  H    0.172435
 Sum of Mulliken atomic charges =   0.00000

 Dipole moment (field-independent basis, Debye):
    X=              3.6916    Y=              0.3358    Z=             -0.2974  Tot=              3.7187
 Quadrupole moment (field-independent basis, Debye-Ang):
   XX=            -95.5734   YY=           -131.7001   ZZ=           -122.3347
   XY=            -12.2426   XZ=             -2.4937   YZ=            -19.7252

 Normal termination of Gaussian 09 at Tue Dec 27 18:30:46 2016.
