 Gaussian 09, Revision A.02,
 Gaussian 09:  EM64L-G09RevA.02 11-Jun-2009

 -------------------------------------------------------------------
 # HF/6-31G* Opt=(ModRedundant, maxcycles=1000, calcfc) geom=nocrowd
 -------------------------------------------------------------------

 ------------------
 Phi Psi fixed scan
 ------------------
 Symbolic Z-matrix:
 Charge =  0 Multiplicity = 1

 SCF Done:  E(RHF) =  -984.523271133     A.U. after   14 cycles

  Exact polarizability:   0.000   0.000   0.000   0.000   0.000   0.000
 Approx polarizability: 132.563   7.859 128.510  -4.793  -5.333 127.739

 SCF Done:  E(RHF) =  -984.536693183     A.U. after   13 cycles
 SCF Done:  E(RHF) =  -984.550807879     A.U. after   14 cycles
 SCF Done:  E(RHF) =  -984.552219076     A.U. after   14 cycles
 SCF Done:  E(RHF) =  -984.546159669     A.U. after   14 cycles
 SCF Done:  E(RHF) =  -984.555222043     A.U. after   13 cycles
 SCF Done:  E(RHF) =  -984.556823866     A.U. after   13 cycles
 SCF Done:  E(RHF) =  -984.558101174     A.U. after   16 cycles
 SCF Done:  E(RHF) =  -984.559062588     A.U. after   13 cycles
 SCF Done:  E(RHF) =  -984.406398229     A.U. after   15 cycles
 SCF Done:  E(RHF) =  -984.560620547     A.U. after   10 cycles
 SCF Done:  E(RHF) =  -984.560628072     A.U. after   11 cycles
 SCF Done:  E(RHF) =  -984.560633174     A.U. after   10 cycles
 SCF Done:  E(RHF) =  -984.560641532     A.U. after   11 cycles
 SCF Done:  E(RHF) =  -984.560644608     A.U. after   11 cycles
 SCF Done:  E(RHF) =  -984.560645370     A.U. after   10 cycles
 SCF Done:  E(RHF) =  -984.560645752     A.U. after    8 cycles
 SCF Done:  E(RHF) =  -984.560645895     A.U. after    8 cycles
 SCF Done:  E(RHF) =  -984.560645926     A.U. after    8 cycles
 SCF Done:  E(RHF) =  -984.560645935     A.U. after    7 cycles
 Optimization completed.
    -- Stationary point found.

                         Standard orientation:
 ---------------------------------------------------------------------
 Center     Atomic      Atomic             Coordinates (Angstroms)
 Number     Number       Type             X           Y           Z
 ---------------------------------------------------------------------
      1          1           0       -5.203711   -3.215807    1.179497
      2          6           0       -4.236889   -2.762696    1.349527
      3          1           0       -3.496791   -3.554850    1.396750
      4          1           0       -4.240827   -2.237770    2.297327
      5          6           0       -3.906848   -1.863067    0.178789
      6          8           0       -4.219386   -2.145158   -0.948336
      7          7           0       -3.217175   -0.742426    0.479393
      8          1           0       -2.943900   -0.539208    1.414532
      9          6           0       -2.749838    0.163407   -0.539592
     10          1           0       -2.405425   -0.421353   -1.383777
     11          6           0       -3.853663    1.120044   -1.012984
     12          1           0       -4.205608    1.727733   -0.186471
     13          1           0       -3.498936    1.778600   -1.799782
     14          1           0       -4.680511    0.540180   -1.400095
     15          6           0       -1.586027    0.957287    0.046942
     16          8           0       -1.457232    1.096969    1.233455
     17          7           0       -0.733586    1.480575   -0.865954
     18          1           0       -0.935149    1.294228   -1.821978
     19          6           0        0.261425    2.518799   -0.613689
     20          1           0        0.451168    2.965877   -1.583214
     21          6           0       -0.205806    3.640934    0.316828
     22          1           0       -0.352022    3.288452    1.326107
     23          1           0        0.542185    4.420970    0.318406
     24          1           0       -1.141568    4.051232   -0.047190
     25          6           0        1.634775    1.991006   -0.186498
     26          8           0        2.530752    2.775081    0.003272
     27          7           0        1.785544    0.664615   -0.088491
     28          1           0        1.017201    0.050558   -0.233282
     29          6           0        3.036929    0.059824    0.296495
     30          1           0        3.838103    0.605423   -0.185925
     31          6           0        3.252543    0.093046    1.815738
     32          1           0        2.461931   -0.451950    2.319286
     33          1           0        4.205469   -0.349422    2.087465
     34          1           0        3.241013    1.120284    2.155040
     35          6           0        3.016034   -1.381423   -0.204626
     36          8           0        1.980912   -1.959775   -0.412942
     37          7           0        4.218900   -1.964812   -0.350683
     38          1           0        5.038579   -1.412051   -0.253940
     39          6           0        4.350961   -3.336359   -0.797505
     40          1           0        3.710643   -3.980261   -0.211846
     41          1           0        4.081590   -3.442623   -1.841922
     42          1           0        5.378844   -3.645643   -0.664980
 ---------------------------------------------------------------------

 The electronic state is 1-A.
 Alpha  occ. eigenvalues --  -20.54517 -20.53617 -20.51998 -20.51578 -15.60545
 Alpha  occ. eigenvalues --  -15.59793 -15.58188 -15.57957 -11.36469 -11.35562
 Alpha  occ. eigenvalues --  -11.34607 -11.34374 -11.29082 -11.28453 -11.28323
 Alpha  occ. eigenvalues --  -11.26671 -11.22748 -11.22705 -11.22408 -11.21704
 Alpha  occ. eigenvalues --   -1.41494  -1.40601  -1.38950  -1.38469  -1.26068
 Alpha  occ. eigenvalues --   -1.24550  -1.23724  -1.23456  -1.07329  -1.04964
 Alpha  occ. eigenvalues --   -1.02901  -0.98752  -0.96605  -0.91856  -0.89902
 Alpha  occ. eigenvalues --   -0.87169  -0.81600  -0.79768  -0.78873  -0.78661
 Alpha  occ. eigenvalues --   -0.74742  -0.73171  -0.69094  -0.67490  -0.66786
 Alpha  occ. eigenvalues --   -0.66280  -0.64524  -0.64314  -0.63399  -0.63184
 Alpha  occ. eigenvalues --   -0.61667  -0.61404  -0.60029  -0.59119  -0.58701
 Alpha  occ. eigenvalues --   -0.58142  -0.56897  -0.56590  -0.56388  -0.55549
 Alpha  occ. eigenvalues --   -0.54997  -0.54808  -0.53441  -0.53369  -0.52812
 Alpha  occ. eigenvalues --   -0.52341  -0.51831  -0.49629  -0.49503  -0.44603
 Alpha  occ. eigenvalues --   -0.43198  -0.42999  -0.41328  -0.40418  -0.39422
 Alpha  occ. eigenvalues --   -0.38540  -0.38356
 Alpha virt. eigenvalues --    0.17969   0.18269   0.19329   0.20922   0.21138
 Alpha virt. eigenvalues --    0.21653   0.24070   0.25854   0.26666   0.26995
 Alpha virt. eigenvalues --    0.27724   0.28914   0.29227   0.29860   0.31128

 Mulliken atomic charges:
              1
     1  H    0.208292
     2  C   -0.577253
     3  H    0.205224
     4  H    0.173835
     5  C    0.756323
     6  O   -0.620817
     7  N   -0.821716
     8  H    0.418841
     9  C   -0.036770
    10  H    0.220230
    11  C   -0.487895
    12  H    0.179394
    13  H    0.154047
    14  H    0.217004
    15  C    0.786704
    16  O   -0.621351
    17  N   -0.858043
    18  H    0.396902
    19  C   -0.016929
    20  H    0.211250
    21  C   -0.501885
    22  H    0.218366
    23  H    0.204049
    24  H    0.163739
    25  C    0.795143
    26  O   -0.640586
    27  N   -0.832804
    28  H    0.436271
    29  C   -0.034590
    30  H    0.212517
    31  C   -0.485570
    32  H    0.184502
    33  H    0.157824
    34  H    0.211507
    35  C    0.777392
    36  O   -0.630050
    37  N   -0.800074
    38  H    0.390049
    39  C   -0.272065
    40  H    0.202708
    41  H    0.184564
    42  H    0.171722
 Sum of Mulliken atomic charges =   0.00000

 Dipole moment (field-independent basis, Debye):
    X=              2.9065    Y=             -0.4458    Z=             -0.3153  Tot=              2.9574
 Quadrupole moment (field-independent basis, Debye-Ang):
   XX=           -107.7024   YY=           -127.2954   ZZ=           -117.7470
   XY=            -23.1196   XZ=             -9.1633   YZ=            -12.7561

 Normal termination of Gaussian 09 at Tue Dec 27 16:52:45 2016.
