 Gaussian 09, Revision A.02,
 Gaussian 09:  EM64L-G09RevA.02 11-Jun-2009

 -------------------------------------------------------------------
 # HF/6-31G* Opt=(ModRedundant, maxcycles=1000, calcfc) geom=nocrowd
 -------------------------------------------------------------------

 ------------------
 Phi Psi fixed scan
 ------------------
 Symbolic Z-matrix:
 Charge =  0 Multiplicity = 1

 SCF Done:  E(RHF) =  -984.519993519     A.U. after   15 cycles

  Exact polarizability:   0.000   0.000   0.000   0.000   0.000   0.000
 Approx polarizability: 131.560  -1.244 119.394  -4.101   1.895 137.682

 SCF Done:  E(RHF) =  -984.532588065     A.U. after   14 cycles
 SCF Done:  E(RHF) =  -984.545335764     A.U. after   15 cycles
 SCF Done:  E(RHF) =  -984.548486209     A.U. after   13 cycles
 SCF Done:  E(RHF) =  -984.550679619     A.U. after   13 cycles
 SCF Done:  E(RHF) =  -984.553798385     A.U. after   15 cycles
 SCF Done:  E(RHF) =  -984.554301360     A.U. after   15 cycles
 SCF Done:  E(RHF) =  -984.554191126     A.U. after   12 cycles
 SCF Done:  E(RHF) =  -984.554663524     A.U. after   12 cycles
 SCF Done:  E(RHF) =  -984.554786842     A.U. after   12 cycles
 SCF Done:  E(RHF) =  -984.554896287     A.U. after   10 cycles
 SCF Done:  E(RHF) =  -984.554900046     A.U. after   10 cycles
 SCF Done:  E(RHF) =  -984.554901795     A.U. after   10 cycles
 SCF Done:  E(RHF) =  -984.554902053     A.U. after    8 cycles
 SCF Done:  E(RHF) =  -984.554902223     A.U. after    8 cycles
 SCF Done:  E(RHF) =  -984.554902263     A.U. after    7 cycles
 SCF Done:  E(RHF) =  -984.554902293     A.U. after    7 cycles
 SCF Done:  E(RHF) =  -984.554902323     A.U. after    7 cycles
 SCF Done:  E(RHF) =  -984.554902351     A.U. after    7 cycles
 SCF Done:  E(RHF) =  -984.554902368     A.U. after    7 cycles
 Optimization completed.
    -- Stationary point found.

                         Standard orientation:
 ---------------------------------------------------------------------
 Center     Atomic      Atomic             Coordinates (Angstroms)
 Number     Number       Type             X           Y           Z
 ---------------------------------------------------------------------
      1          1           0        6.930949   -2.018020   -0.748947
      2          6           0        5.951229   -1.772160   -1.135471
      3          1           0        5.515416   -2.677911   -1.543916
      4          1           0        6.045571   -1.043824   -1.931783
      5          6           0        5.083034   -1.292269    0.007375
      6          8           0        5.123543   -1.810001    1.093675
      7          7           0        4.251893   -0.270377   -0.279001
      8          1           0        4.197350    0.109607   -1.197436
      9          6           0        3.295112    0.230841    0.676108
     10          1           0        2.894420   -0.610494    1.228106
     11          6           0        3.932777    1.217421    1.663909
     12          1           0        4.327635    2.077120    1.133510
     13          1           0        3.213254    1.565925    2.397802
     14          1           0        4.742326    0.723496    2.184503
     15          6           0        2.175891    0.913272   -0.112906
     16          8           0        2.365825    1.314832   -1.227210
     17          7           0        1.025514    1.067298    0.585922
     18          1           0        0.981505    0.592409    1.459405
     19          6           0       -0.250850    1.577601    0.108327
     20          1           0       -0.736096    1.992519    0.985632
     21          6           0       -0.153843    2.687786   -0.937825
     22          1           0        0.224214    2.313558   -1.874362
     23          1           0       -1.145000    3.104045   -1.090003
     24          1           0        0.498983    3.477294   -0.586932
     25          6           0       -1.105231    0.421004   -0.424537
     26          8           0       -0.731177   -0.278213   -1.327033
     27          7           0       -2.285171    0.243018    0.200099
     28          1           0       -2.597672    0.866003    0.911489
     29          6           0       -3.240199   -0.750459   -0.231157
     30          1           0       -3.226095   -0.789926   -1.313608
     31          6           0       -2.908585   -2.142626    0.322129
     32          1           0       -2.932948   -2.132795    1.406396
     33          1           0       -3.615305   -2.886233   -0.030893
     34          1           0       -1.918117   -2.428849   -0.005685
     35          6           0       -4.616145   -0.295316    0.248861
     36          8           0       -4.736905    0.496152    1.148656
     37          7           0       -5.665784   -0.863165   -0.368547
     38          1           0       -5.505926   -1.435386   -1.164811
     39          6           0       -7.030517   -0.535167   -0.008596
     40          1           0       -7.161176   -0.616377    1.060892
     41          1           0       -7.290479    0.472416   -0.311297
     42          1           0       -7.694288   -1.233744   -0.499375
 ---------------------------------------------------------------------

 The electronic state is 1-A.
 Alpha  occ. eigenvalues --  -20.54295 -20.53298 -20.52705 -20.51066 -15.60336
 Alpha  occ. eigenvalues --  -15.59782 -15.59146 -15.57367 -11.36229 -11.35563
 Alpha  occ. eigenvalues --  -11.34950 -11.33898 -11.29169 -11.28977 -11.27691
 Alpha  occ. eigenvalues --  -11.27101 -11.23139 -11.22375 -11.22040 -11.22000
 Alpha  occ. eigenvalues --   -1.41290  -1.40452  -1.39485  -1.37918  -1.25161
 Alpha  occ. eigenvalues --   -1.25118  -1.24481  -1.23024  -1.07578  -1.05181
 Alpha  occ. eigenvalues --   -1.02624  -0.98268  -0.97109  -0.91970  -0.89928
 Alpha  occ. eigenvalues --   -0.86906  -0.81748  -0.79650  -0.79074  -0.78006
 Alpha  occ. eigenvalues --   -0.74797  -0.72505  -0.69385  -0.68180  -0.66625
 Alpha  occ. eigenvalues --   -0.65863  -0.65171  -0.64413  -0.63392  -0.62468
 Alpha  occ. eigenvalues --   -0.61906  -0.61107  -0.60767  -0.59598  -0.58693
 Alpha  occ. eigenvalues --   -0.57535  -0.56887  -0.56775  -0.56278  -0.55180
 Alpha  occ. eigenvalues --   -0.54644  -0.54380  -0.53820  -0.53287  -0.52853
 Alpha  occ. eigenvalues --   -0.52289  -0.52043  -0.50509  -0.49048  -0.44443
 Alpha  occ. eigenvalues --   -0.43603  -0.42049  -0.41043  -0.40839  -0.39334
 Alpha  occ. eigenvalues --   -0.38984  -0.37665
 Alpha virt. eigenvalues --    0.17338   0.18533   0.20181   0.20517   0.21206
 Alpha virt. eigenvalues --    0.21973   0.24367   0.24678   0.25731   0.27473
 Alpha virt. eigenvalues --    0.28116   0.28570   0.29376   0.29768   0.30730

 Mulliken atomic charges:
              1
     1  H    0.206101
     2  C   -0.575901
     3  H    0.202792
     4  H    0.174123
     5  C    0.755231
     6  O   -0.624980
     7  N   -0.820920
     8  H    0.421053
     9  C   -0.035383
    10  H    0.212029
    11  C   -0.483191
    12  H    0.177219
    13  H    0.155664
    14  H    0.211446
    15  C    0.806096
    16  O   -0.620398
    17  N   -0.826385
    18  H    0.387933
    19  C   -0.030341
    20  H    0.188251
    21  C   -0.492430
    22  H    0.238520
    23  H    0.161247
    24  H    0.182675
    25  C    0.784180
    26  O   -0.617123
    27  N   -0.835493
    28  H    0.423020
    29  C   -0.035078
    30  H    0.216343
    31  C   -0.484402
    32  H    0.177853
    33  H    0.160832
    34  H    0.212840
    35  C    0.776279
    36  O   -0.632114
    37  N   -0.798909
    38  H    0.391552
    39  C   -0.272964
    40  H    0.203145
    41  H    0.185878
    42  H    0.173708
 Sum of Mulliken atomic charges =   0.00000

 Dipole moment (field-independent basis, Debye):
    X=             -5.1653    Y=              0.0716    Z=             -0.5035  Tot=              5.1903
 Quadrupole moment (field-independent basis, Debye-Ang):
   XX=           -104.4620   YY=           -120.6229   ZZ=           -125.0839
   XY=             17.1177   XZ=              2.0538   YZ=              8.2322

 Normal termination of Gaussian 09 at Tue Dec 27 16:56:06 2016.
