 Gaussian 09, Revision A.02,
 Gaussian 09:  EM64L-G09RevA.02 11-Jun-2009

 -------------------------------------------------------------------
 # HF/6-31G* Opt=(ModRedundant, maxcycles=1000, calcfc) geom=nocrowd
 -------------------------------------------------------------------

 ------------------
 Phi Psi fixed scan
 ------------------
 Symbolic Z-matrix:
 Charge =  0 Multiplicity = 1

 SCF Done:  E(RHF) =  -984.514706037     A.U. after   15 cycles

  Exact polarizability:   0.000   0.000   0.000   0.000   0.000   0.000
 Approx polarizability: 129.684  -6.286 128.513  -2.160  11.902 130.303

 SCF Done:  E(RHF) =  -984.529794434     A.U. after   13 cycles
 SCF Done:  E(RHF) =  -984.545865714     A.U. after   14 cycles
 SCF Done:  E(RHF) =  -984.550759453     A.U. after   15 cycles
 SCF Done:  E(RHF) =  -984.477283259     A.U. after   14 cycles
 SCF Done:  E(RHF) =  -984.552081186     A.U. after   14 cycles
 SCF Done:  E(RHF) =  -984.552707520     A.U. after   12 cycles
 SCF Done:  E(RHF) =  -984.553493503     A.U. after   12 cycles
 SCF Done:  E(RHF) =  -984.554516381     A.U. after   13 cycles
 SCF Done:  E(RHF) =  -984.554786379     A.U. after   13 cycles
 SCF Done:  E(RHF) =  -984.557847916     A.U. after   11 cycles
 SCF Done:  E(RHF) =  -984.557849686     A.U. after   10 cycles
 SCF Done:  E(RHF) =  -984.557850372     A.U. after    9 cycles
 SCF Done:  E(RHF) =  -984.557850861     A.U. after   10 cycles
 SCF Done:  E(RHF) =  -984.557851133     A.U. after    9 cycles
 SCF Done:  E(RHF) =  -984.557851261     A.U. after    8 cycles
 SCF Done:  E(RHF) =  -984.557851374     A.U. after    8 cycles
 SCF Done:  E(RHF) =  -984.557851436     A.U. after    8 cycles
 SCF Done:  E(RHF) =  -984.557851459     A.U. after    7 cycles
 SCF Done:  E(RHF) =  -984.557851472     A.U. after    7 cycles
 Optimization completed.
    -- Stationary point found.

                         Standard orientation:
 ---------------------------------------------------------------------
 Center     Atomic      Atomic             Coordinates (Angstroms)
 Number     Number       Type             X           Y           Z
 ---------------------------------------------------------------------
      1          1           0        4.652634    3.759834   -0.756258
      2          6           0        4.621994    3.079201    0.084254
      3          1           0        3.864367    3.404044    0.786982
      4          1           0        5.589525    3.112576    0.573215
      5          6           0        4.393893    1.676653   -0.436814
      6          8           0        4.996377    1.252046   -1.388451
      7          7           0        3.495194    0.936624    0.242857
      8          1           0        2.990280    1.314422    1.012580
      9          6           0        3.171772   -0.417692   -0.132738
     10          1           0        3.132353   -0.469557   -1.213713
     11          6           0        4.212861   -1.424227    0.376044
     12          1           0        4.260084   -1.401972    1.459587
     13          1           0        3.971557   -2.433835    0.061228
     14          1           0        5.183443   -1.161659   -0.023183
     15          6           0        1.796160   -0.737974    0.449979
     16          8           0        1.358857   -0.119408    1.385293
     17          7           0        1.167344   -1.777218   -0.137511
     18          1           0        1.507089   -2.067343   -1.026588
     19          6           0       -0.149655   -2.300070    0.207309
     20          1           0       -0.164013   -3.302773   -0.202491
     21          6           0       -0.408429   -2.420514    1.706726
     22          1           0       -0.454754   -1.466325    2.207006
     23          1           0       -1.337264   -2.958404    1.865580
     24          1           0        0.390933   -2.993395    2.161659
     25          6           0       -1.194277   -1.557345   -0.639073
     26          8           0       -1.118038   -1.625902   -1.841060
     27          7           0       -2.144593   -0.858474   -0.004903
     28          1           0       -2.146359   -0.760769    0.985795
     29          6           0       -3.137514   -0.092307   -0.722380
     30          1           0       -2.655036    0.388143   -1.564610
     31          6           0       -4.282098   -0.974093   -1.238609
     32          1           0       -4.789766   -1.453877   -0.409133
     33          1           0       -5.007047   -0.388995   -1.794758
     34          1           0       -3.879693   -1.734913   -1.894009
     35          6           0       -3.676259    0.963375    0.238819
     36          8           0       -3.616284    0.813843    1.431519
     37          7           0       -4.256537    2.031521   -0.335906
     38          1           0       -4.177313    2.152040   -1.318852
     39          6           0       -4.818408    3.108323    0.453928
     40          1           0       -5.470075    2.705440    1.215612
     41          1           0       -4.045091    3.693733    0.937706
     42          1           0       -5.393240    3.751797   -0.198196
 ---------------------------------------------------------------------

 The electronic state is 1-A.
 Alpha  occ. eigenvalues --  -20.53921 -20.53824 -20.52495 -20.51323 -15.59940
 Alpha  occ. eigenvalues --  -15.59805 -15.58836 -15.57762 -11.35973 -11.35784
 Alpha  occ. eigenvalues --  -11.34981 -11.34215 -11.29023 -11.28653 -11.28006
 Alpha  occ. eigenvalues --  -11.26739 -11.22814 -11.22723 -11.22580 -11.22204
 Alpha  occ. eigenvalues --   -1.40983  -1.40782  -1.39366  -1.38224  -1.25105
 Alpha  occ. eigenvalues --   -1.24730  -1.24375  -1.23378  -1.07590  -1.05165
 Alpha  occ. eigenvalues --   -1.02663  -0.98587  -0.96755  -0.91950  -0.90053
 Alpha  occ. eigenvalues --   -0.87587  -0.81660  -0.79574  -0.78929  -0.78150
 Alpha  occ. eigenvalues --   -0.74709  -0.73260  -0.68225  -0.67939  -0.66796
 Alpha  occ. eigenvalues --   -0.66464  -0.64820  -0.64308  -0.64002  -0.63138
 Alpha  occ. eigenvalues --   -0.61478  -0.61170  -0.60392  -0.59577  -0.58524
 Alpha  occ. eigenvalues --   -0.57320  -0.56711  -0.56476  -0.56239  -0.55717
 Alpha  occ. eigenvalues --   -0.55104  -0.54773  -0.53922  -0.53650  -0.53158
 Alpha  occ. eigenvalues --   -0.52578  -0.52098  -0.50310  -0.49398  -0.44090
 Alpha  occ. eigenvalues --   -0.43090  -0.42633  -0.41127  -0.40650  -0.39531
 Alpha  occ. eigenvalues --   -0.38886  -0.38084
 Alpha virt. eigenvalues --    0.17621   0.18813   0.20173   0.20922   0.21224
 Alpha virt. eigenvalues --    0.22127   0.24072   0.24735   0.25993   0.27567
 Alpha virt. eigenvalues --    0.27659   0.28586   0.29210   0.29478   0.30649

 Mulliken atomic charges:
              1
     1  H    0.206896
     2  C   -0.575335
     3  H    0.172391
     4  H    0.202584
     5  C    0.756735
     6  O   -0.622462
     7  N   -0.824712
     8  H    0.418742
     9  C   -0.033142
    10  H    0.218621
    11  C   -0.485091
    12  H    0.174901
    13  H    0.162443
    14  H    0.211776
    15  C    0.792878
    16  O   -0.633523
    17  N   -0.818060
    18  H    0.402925
    19  C   -0.032264
    20  H    0.212870
    21  C   -0.521066
    22  H    0.224476
    23  H    0.171990
    24  H    0.186945
    25  C    0.793972
    26  O   -0.644218
    27  N   -0.839973
    28  H    0.440899
    29  C   -0.027596
    30  H    0.213025
    31  C   -0.486610
    32  H    0.180374
    33  H    0.161309
    34  H    0.210746
    35  C    0.774731
    36  O   -0.627060
    37  N   -0.799438
    38  H    0.390005
    39  C   -0.273438
    40  H    0.203738
    41  H    0.185761
    42  H    0.172251
 Sum of Mulliken atomic charges =   0.00000

 Dipole moment (field-independent basis, Debye):
    X=             -3.5005    Y=              0.8179    Z=              0.3737  Tot=              3.6142
 Quadrupole moment (field-independent basis, Debye-Ang):
   XX=           -121.0187   YY=           -101.3899   ZZ=           -133.1905
   XY=            -10.9616   XZ=             19.9778   YZ=             -4.5329

 Normal termination of Gaussian 09 at Tue Dec 27 20:27:39 2016.
