 Gaussian 09, Revision A.02,
 Gaussian 09:  EM64L-G09RevA.02 11-Jun-2009

 -------------------------------------------------------------------
 # HF/6-31G* Opt=(ModRedundant, maxcycles=1000, calcfc) geom=nocrowd
 -------------------------------------------------------------------

 ------------------
 Phi Psi fixed scan
 ------------------
 Symbolic Z-matrix:
 Charge =  0 Multiplicity = 1

 SCF Done:  E(RHF) =  -984.516836077     A.U. after   15 cycles

  Exact polarizability:   0.000   0.000   0.000   0.000   0.000   0.000
 Approx polarizability: 129.405  -1.596 130.102   0.793  13.240 129.192

 SCF Done:  E(RHF) =  -984.531491277     A.U. after   13 cycles
 SCF Done:  E(RHF) =  -984.546915283     A.U. after   14 cycles
 SCF Done:  E(RHF) =  -984.551463527     A.U. after   14 cycles
 SCF Done:  E(RHF) =  -984.554006915     A.U. after   13 cycles
 SCF Done:  E(RHF) =  -984.556940704     A.U. after   13 cycles
 SCF Done:  E(RHF) =  -984.557535367     A.U. after   15 cycles
 SCF Done:  E(RHF) =  -984.557475044     A.U. after   14 cycles
 SCF Done:  E(RHF) =  -984.557861036     A.U. after   13 cycles
 SCF Done:  E(RHF) =  -984.557856539     A.U. after   14 cycles
 SCF Done:  E(RHF) =  -984.558198500     A.U. after   11 cycles
 SCF Done:  E(RHF) =  -984.558195327     A.U. after   11 cycles
 SCF Done:  E(RHF) =  -984.558206838     A.U. after   11 cycles
 SCF Done:  E(RHF) =  -984.558211383     A.U. after   11 cycles
 SCF Done:  E(RHF) =  -984.558211804     A.U. after   10 cycles
 SCF Done:  E(RHF) =  -984.558212113     A.U. after   10 cycles
 SCF Done:  E(RHF) =  -984.558212738     A.U. after   10 cycles
 SCF Done:  E(RHF) =  -984.558212815     A.U. after    7 cycles
 SCF Done:  E(RHF) =  -984.558212818     A.U. after    5 cycles
 SCF Done:  E(RHF) =  -984.558212819     A.U. after    5 cycles
 Optimization completed.
    -- Stationary point found.

                         Standard orientation:
 ---------------------------------------------------------------------
 Center     Atomic      Atomic             Coordinates (Angstroms)
 Number     Number       Type             X           Y           Z
 ---------------------------------------------------------------------
      1          1           0        5.124213    3.120094    0.760295
      2          6           0        4.203201    3.079384    0.188441
      3          1           0        4.283798    3.790947   -0.622189
      4          1           0        3.379981    3.356075    0.835849
      5          6           0        4.060041    1.691420   -0.397073
      6          8           0        4.704096    1.336869   -1.350091
      7          7           0        3.187147    0.877420    0.230968
      8          1           0        2.647616    1.195262    1.004619
      9          6           0        2.950181   -0.476355   -0.204914
     10          1           0        2.948512   -0.488202   -1.287709
     11          6           0        4.026359   -1.446524    0.301794
     12          1           0        4.039605   -1.461615    1.386251
     13          1           0        3.848738   -2.455549   -0.055911
     14          1           0        4.993554   -1.120775   -0.057055
     15          6           0        1.578264   -0.891991    0.318799
     16          8           0        1.090547   -0.356263    1.281156
     17          7           0        0.990277   -1.899929   -0.354483
     18          1           0        1.413203   -2.203911   -1.201591
     19          6           0       -0.252725   -2.573153    0.017158
     20          1           0       -0.224237   -3.515348   -0.511890
     21          6           0       -0.396508   -2.886461    1.504924
     22          1           0       -0.465241   -2.008060    2.125312
     23          1           0       -1.285922   -3.490704    1.649011
     24          1           0        0.460382   -3.463635    1.834091
     25          6           0       -1.430997   -1.841126   -0.636889
     26          8           0       -1.803159   -2.172455   -1.734112
     27          7           0       -1.997886   -0.842991    0.060767
     28          1           0       -1.578191   -0.503209    0.899984
     29          6           0       -3.062858   -0.043822   -0.501633
     30          1           0       -2.857284    0.113086   -1.553743
     31          6           0       -4.425692   -0.734513   -0.360179
     32          1           0       -4.660499   -0.888345    0.687165
     33          1           0       -5.215749   -0.140768   -0.808123
     34          1           0       -4.393384   -1.694179   -0.858743
     35          6           0       -3.074363    1.297606    0.224722
     36          8           0       -2.606251    1.423889    1.325122
     37          7           0       -3.682027    2.304616   -0.430407
     38          1           0       -3.952777    2.170674   -1.376737
     39          6           0       -3.780007    3.632110    0.140172
     40          1           0       -4.156544    3.572319    1.151087
     41          1           0       -2.817326    4.130024    0.161619
     42          1           0       -4.466262    4.216231   -0.458034
 ---------------------------------------------------------------------

 The electronic state is 1-A.
 Alpha  occ. eigenvalues --  -20.54285 -20.53385 -20.52519 -20.51606 -15.60463
 Alpha  occ. eigenvalues --  -15.59558 -15.58127 -15.58030 -11.36358 -11.35349
 Alpha  occ. eigenvalues --  -11.34644 -11.34459 -11.28914 -11.28408 -11.28201
 Alpha  occ. eigenvalues --  -11.26501 -11.22873 -11.22611 -11.22592 -11.22449
 Alpha  occ. eigenvalues --   -1.41283  -1.40439  -1.39203  -1.38501  -1.25584
 Alpha  occ. eigenvalues --   -1.24338  -1.23777  -1.23588  -1.07585  -1.05053
 Alpha  occ. eigenvalues --   -1.02775  -0.98831  -0.96432  -0.92016  -0.89854
 Alpha  occ. eigenvalues --   -0.87597  -0.81520  -0.79585  -0.78825  -0.78284
 Alpha  occ. eigenvalues --   -0.74733  -0.73342  -0.68457  -0.67655  -0.66580
 Alpha  occ. eigenvalues --   -0.66293  -0.64689  -0.64192  -0.63602  -0.63312
 Alpha  occ. eigenvalues --   -0.61681  -0.61536  -0.60048  -0.59484  -0.58618
 Alpha  occ. eigenvalues --   -0.57443  -0.56944  -0.56568  -0.56206  -0.55401
 Alpha  occ. eigenvalues --   -0.55162  -0.54773  -0.53629  -0.53539  -0.52972
 Alpha  occ. eigenvalues --   -0.52857  -0.51933  -0.50294  -0.49706  -0.44446
 Alpha  occ. eigenvalues --   -0.43106  -0.42725  -0.41393  -0.40238  -0.39280
 Alpha  occ. eigenvalues --   -0.38552  -0.38396
 Alpha virt. eigenvalues --    0.17431   0.18977   0.20431   0.20808   0.21183
 Alpha virt. eigenvalues --    0.21535   0.23962   0.25348   0.26132   0.27457
 Alpha virt. eigenvalues --    0.27913   0.28610   0.29218   0.29528   0.30627

 Mulliken atomic charges:
              1
     1  H    0.202563
     2  C   -0.576570
     3  H    0.207786
     4  H    0.175367
     5  C    0.755451
     6  O   -0.622174
     7  N   -0.823470
     8  H    0.420622
     9  C   -0.032287
    10  H    0.217846
    11  C   -0.486870
    12  H    0.177993
    13  H    0.159350
    14  H    0.213273
    15  C    0.797702
    16  O   -0.638278
    17  N   -0.833737
    18  H    0.401058
    19  C   -0.039907
    20  H    0.219427
    21  C   -0.500713
    22  H    0.217918
    23  H    0.174915
    24  H    0.176945
    25  C    0.785009
    26  O   -0.633760
    27  N   -0.829652
    28  H    0.447568
    29  C   -0.029873
    30  H    0.209340
    31  C   -0.484206
    32  H    0.181307
    33  H    0.159026
    34  H    0.207973
    35  C    0.769666
    36  O   -0.621006
    37  N   -0.799950
    38  H    0.388912
    39  C   -0.271895
    40  H    0.203302
    41  H    0.183069
    42  H    0.170959
 Sum of Mulliken atomic charges =   0.00000

 Dipole moment (field-independent basis, Debye):
    X=             -2.4148    Y=              0.7691    Z=              0.2322  Tot=              2.5449
 Quadrupole moment (field-independent basis, Debye-Ang):
   XX=           -120.7421   YY=           -104.4036   ZZ=           -131.3401
   XY=            -14.1719   XZ=             14.7042   YZ=             -6.3541

 Normal termination of Gaussian 09 at Tue Dec 27 20:19:53 2016.
