 Gaussian 09, Revision A.02,
 Gaussian 09:  EM64L-G09RevA.02 11-Jun-2009

 -------------------------------------------------------------------
 # HF/6-31G* Opt=(ModRedundant, maxcycles=1000, calcfc) geom=nocrowd
 -------------------------------------------------------------------

 ------------------
 Phi Psi fixed scan
 ------------------
 Symbolic Z-matrix:
 Charge =  0 Multiplicity = 1

 SCF Done:  E(RHF) =  -984.520882156     A.U. after   15 cycles

  Exact polarizability:   0.000   0.000   0.000   0.000   0.000   0.000
 Approx polarizability: 130.021  -6.675 125.362   9.559  -7.216 134.705

 SCF Done:  E(RHF) =  -984.531791557     A.U. after   13 cycles
 SCF Done:  E(RHF) =  -984.544973983     A.U. after   13 cycles
 SCF Done:  E(RHF) =  -984.549481968     A.U. after   13 cycles
 SCF Done:  E(RHF) =  -984.551931153     A.U. after   14 cycles
 SCF Done:  E(RHF) =  -984.553155465     A.U. after   14 cycles
 SCF Done:  E(RHF) =  -984.552925860     A.U. after   13 cycles
 SCF Done:  E(RHF) =  -984.553608504     A.U. after   14 cycles
 SCF Done:  E(RHF) =  -984.373121723     A.U. after   15 cycles
 SCF Done:  E(RHF) =  -984.553804231     A.U. after   15 cycles
 SCF Done:  E(RHF) =  -984.554004391     A.U. after   11 cycles
 SCF Done:  E(RHF) =  -984.554005266     A.U. after    9 cycles
 SCF Done:  E(RHF) =  -984.554005529     A.U. after    9 cycles
 SCF Done:  E(RHF) =  -984.554005564     A.U. after    7 cycles
 SCF Done:  E(RHF) =  -984.554005628     A.U. after    8 cycles
 SCF Done:  E(RHF) =  -984.554005697     A.U. after    8 cycles
 SCF Done:  E(RHF) =  -984.554005800     A.U. after    9 cycles
 SCF Done:  E(RHF) =  -984.554005851     A.U. after    8 cycles
 SCF Done:  E(RHF) =  -984.554005871     A.U. after    7 cycles
 SCF Done:  E(RHF) =  -984.554005875     A.U. after    7 cycles
 Optimization completed.
    -- Stationary point found.

                         Standard orientation:
 ---------------------------------------------------------------------
 Center     Atomic      Atomic             Coordinates (Angstroms)
 Number     Number       Type             X           Y           Z
 ---------------------------------------------------------------------
      1          1           0       -4.833867   -3.788444   -0.598642
      2          6           0       -4.514634   -3.166867    0.227159
      3          1           0       -3.589866   -3.554119    0.637235
      4          1           0       -5.281596   -3.211662    0.992916
      5          6           0       -4.400799   -1.738043   -0.257714
      6          8           0       -5.233604   -1.245169   -0.973500
      7          7           0       -3.324101   -1.053533    0.179309
      8          1           0       -2.639928   -1.480979    0.761889
      9          6           0       -3.088300    0.320831   -0.186698
     10          1           0       -3.380160    0.447290   -1.221453
     11          6           0       -3.891249    1.298315    0.682848
     12          1           0       -3.606984    1.196566    1.724335
     13          1           0       -3.724937    2.327229    0.380102
     14          1           0       -4.945647    1.077852    0.581555
     15          6           0       -1.592249    0.586731   -0.030021
     16          8           0       -0.922185   -0.068605    0.723179
     17          7           0       -1.125280    1.608864   -0.773801
     18          1           0       -1.779682    2.056439   -1.375727
     19          6           0        0.197399    2.232284   -0.762410
     20          1           0        0.627849    2.085302   -1.748217
     21          6           0        0.063041    3.729158   -0.501543
     22          1           0       -0.317709    3.903301    0.495026
     23          1           0        1.026358    4.217375   -0.590372
     24          1           0       -0.609672    4.178934   -1.226397
     25          6           0        1.173779    1.611255    0.254110
     26          8           0        1.331616    2.093225    1.341502
     27          7           0        1.911394    0.592878   -0.222069
     28          1           0        1.666860    0.150440   -1.080141
     29          6           0        2.845318   -0.128189    0.609960
     30          1           0        3.409181    0.599729    1.179066
     31          6           0        2.158574   -1.101248    1.577867
     32          1           0        1.602728   -1.850251    1.026520
     33          1           0        2.891340   -1.600921    2.204115
     34          1           0        1.469055   -0.557736    2.207494
     35          6           0        3.775380   -0.894168   -0.324971
     36          8           0        3.409272   -1.261122   -1.411832
     37          7           0        4.997286   -1.171951    0.163775
     38          1           0        5.273461   -0.771398    1.029667
     39          6           0        5.970465   -1.923788   -0.600714
     40          1           0        6.340596   -1.352883   -1.444357
     41          1           0        6.800046   -2.174360    0.046538
     42          1           0        5.526341   -2.835756   -0.973675
 ---------------------------------------------------------------------

 The electronic state is 1-A.
 Alpha  occ. eigenvalues --  -20.54043 -20.53104 -20.52272 -20.51581 -15.60588
 Alpha  occ. eigenvalues --  -15.59416 -15.58046 -15.57806 -11.36339 -11.35062
 Alpha  occ. eigenvalues --  -11.34969 -11.34459 -11.29270 -11.28354 -11.27715
 Alpha  occ. eigenvalues --  -11.26397 -11.22873 -11.22679 -11.22510 -11.21347
 Alpha  occ. eigenvalues --   -1.41238  -1.40123  -1.39038  -1.38474  -1.25762
 Alpha  occ. eigenvalues --   -1.24150  -1.23728  -1.23493  -1.07483  -1.04715
 Alpha  occ. eigenvalues --   -1.02922  -0.98796  -0.96191  -0.91678  -0.89706
 Alpha  occ. eigenvalues --   -0.86334  -0.82481  -0.79769  -0.78901  -0.78352
 Alpha  occ. eigenvalues --   -0.73675  -0.72246  -0.68599  -0.68155  -0.66448
 Alpha  occ. eigenvalues --   -0.66052  -0.65236  -0.64027  -0.63370  -0.62777
 Alpha  occ. eigenvalues --   -0.61637  -0.60658  -0.60057  -0.59208  -0.58914
 Alpha  occ. eigenvalues --   -0.58418  -0.57056  -0.56330  -0.56078  -0.55401
 Alpha  occ. eigenvalues --   -0.54861  -0.54140  -0.53444  -0.53126  -0.52683
 Alpha  occ. eigenvalues --   -0.52191  -0.52022  -0.50169  -0.49662  -0.43186
 Alpha  occ. eigenvalues --   -0.42581  -0.42032  -0.41390  -0.40466  -0.39990
 Alpha  occ. eigenvalues --   -0.38426  -0.38041
 Alpha virt. eigenvalues --    0.18185   0.18872   0.19576   0.21174   0.21349
 Alpha virt. eigenvalues --    0.21817   0.23890   0.25005   0.26252   0.27246
 Alpha virt. eigenvalues --    0.27895   0.28764   0.29125   0.29980   0.30461

 Mulliken atomic charges:
              1
     1  H    0.208552
     2  C   -0.575847
     3  H    0.173451
     4  H    0.202894
     5  C    0.756735
     6  O   -0.622704
     7  N   -0.822994
     8  H    0.418239
     9  C   -0.036835
    10  H    0.216354
    11  C   -0.486368
    12  H    0.183021
    13  H    0.157952
    14  H    0.211362
    15  C    0.803032
    16  O   -0.632906
    17  N   -0.840175
    18  H    0.390913
    19  C   -0.013143
    20  H    0.195722
    21  C   -0.480725
    22  H    0.208313
    23  H    0.182132
    24  H    0.151873
    25  C    0.812854
    26  O   -0.622025
    27  N   -0.819410
    28  H    0.415953
    29  C   -0.042677
    30  H    0.208041
    31  C   -0.479544
    32  H    0.181851
    33  H    0.149706
    34  H    0.225123
    35  C    0.781402
    36  O   -0.633544
    37  N   -0.800463
    38  H    0.389778
    39  C   -0.271145
    40  H    0.183899
    41  H    0.170398
    42  H    0.200953
 Sum of Mulliken atomic charges =   0.00000

 Dipole moment (field-independent basis, Debye):
    X=              3.4596    Y=              0.2523    Z=              0.4236  Tot=              3.4945
 Quadrupole moment (field-independent basis, Debye-Ang):
   XX=           -114.9495   YY=           -112.0816   ZZ=           -125.5075
   XY=             -7.3330   XZ=             -1.1094   YZ=            -15.0289

 Normal termination of Gaussian 09 at Mon Dec 26 13:04:35 2016.
