 Gaussian 09, Revision A.02,
 Gaussian 09:  EM64L-G09RevA.02 11-Jun-2009

 -------------------------------------------------------------------
 # HF/6-31G* Opt=(ModRedundant, maxcycles=1000, calcfc) geom=nocrowd
 -------------------------------------------------------------------

 ------------------
 Phi Psi fixed scan
 ------------------
 Symbolic Z-matrix:
 Charge =  0 Multiplicity = 1

 SCF Done:  E(RHF) =  -984.481452495     A.U. after   15 cycles

  Exact polarizability:   0.000   0.000   0.000   0.000   0.000   0.000
 Approx polarizability: 132.923  -4.020 130.034  15.933  -2.153 128.094

 SCF Done:  E(RHF) =  -984.505729853     A.U. after   13 cycles
 SCF Done:  E(RHF) =  -984.538587780     A.U. after   14 cycles
 SCF Done:  E(RHF) =  -984.537758816     A.U. after   15 cycles
 SCF Done:  E(RHF) =  -984.541566928     A.U. after   13 cycles
 SCF Done:  E(RHF) =  -984.543184140     A.U. after   14 cycles
 SCF Done:  E(RHF) =  -984.545115506     A.U. after   12 cycles
 SCF Done:  E(RHF) =  -984.547172298     A.U. after   13 cycles
 SCF Done:  E(RHF) =  -984.546532116     A.U. after   15 cycles
 SCF Done:  E(RHF) =  -984.547979967     A.U. after   13 cycles
 SCF Done:  E(RHF) =  -984.549883232     A.U. after   10 cycles
 SCF Done:  E(RHF) =  -984.549883600     A.U. after    9 cycles
 SCF Done:  E(RHF) =  -984.549883681     A.U. after    7 cycles
 SCF Done:  E(RHF) =  -984.549883750     A.U. after    7 cycles
 SCF Done:  E(RHF) =  -984.549883766     A.U. after    7 cycles
 SCF Done:  E(RHF) =  -984.549883793     A.U. after    7 cycles
 SCF Done:  E(RHF) =  -984.549883818     A.U. after    7 cycles
 SCF Done:  E(RHF) =  -984.549883839     A.U. after    7 cycles
 SCF Done:  E(RHF) =  -984.549883851     A.U. after    7 cycles
 SCF Done:  E(RHF) =  -984.549883855     A.U. after    7 cycles
 Optimization completed.
    -- Stationary point found.

                         Standard orientation:
 ---------------------------------------------------------------------
 Center     Atomic      Atomic             Coordinates (Angstroms)
 Number     Number       Type             X           Y           Z
 ---------------------------------------------------------------------
      1          1           0       -4.870312   -3.745393    0.461471
      2          6           0       -3.869122   -3.355115    0.341521
      3          1           0       -3.362719   -3.951990   -0.409913
      4          1           0       -3.327459   -3.445228    1.275421
      5          6           0       -3.958285   -1.928454   -0.154064
      6          8           0       -4.801372   -1.579383   -0.938634
      7          7           0       -3.015048   -1.086076    0.317244
      8          1           0       -2.314790   -1.397278    0.952207
      9          6           0       -2.925705    0.284718   -0.120388
     10          1           0       -3.176385    0.316822   -1.172822
     11          6           0       -3.885649    1.201474    0.650255
     12          1           0       -3.647760    1.190040    1.708122
     13          1           0       -3.827894    2.225414    0.295149
     14          1           0       -4.898646    0.846971    0.513073
     15          6           0       -1.481070    0.739934    0.090131
     16          8           0       -0.791851    0.224788    0.930721
     17          7           0       -1.110978    1.781087   -0.683134
     18          1           0       -1.781819    2.059247   -1.364342
     19          6           0        0.175231    2.464786   -0.863337
     20          1           0        0.460660    2.305357   -1.900033
     21          6           0       -0.019133    3.960566   -0.633494
     22          1           0       -0.259336    4.156203    0.403009
     23          1           0        0.880015    4.506215   -0.884066
     24          1           0       -0.829942    4.327343   -1.256246
     25          6           0        1.377729    1.950885   -0.046691
     26          8           0        2.017912    2.713721    0.624837
     27          7           0        1.737821    0.671741   -0.249755
     28          1           0        1.083929    0.026559   -0.631678
     29          6           0        2.826872    0.070814    0.484992
     30          1           0        3.655781    0.766227    0.474114
     31          6           0        2.461337   -0.256881    1.939494
     32          1           0        1.631604   -0.951529    1.970815
     33          1           0        3.307989   -0.695005    2.459139
     34          1           0        2.172426    0.650294    2.452399
     35          6           0        3.208169   -1.209239   -0.251301
     36          8           0        2.392124   -1.848711   -0.862860
     37          7           0        4.490771   -1.596262   -0.124499
     38          1           0        5.138717   -0.983576    0.312754
     39          6           0        4.984373   -2.809300   -0.741936
     40          1           0        5.031558   -2.716586   -1.820855
     41          1           0        5.976517   -3.012360   -0.361853
     42          1           0        4.336926   -3.639623   -0.498466
 ---------------------------------------------------------------------

 The electronic state is 1-A.
 Alpha  occ. eigenvalues --  -20.54354 -20.52956 -20.52826 -20.51673 -15.60926
 Alpha  occ. eigenvalues --  -15.59330 -15.58074 -15.57491 -11.36714 -11.35265
 Alpha  occ. eigenvalues --  -11.34934 -11.34490 -11.29609 -11.28509 -11.27657
 Alpha  occ. eigenvalues --  -11.26335 -11.22825 -11.22611 -11.22312 -11.21387
 Alpha  occ. eigenvalues --   -1.41472  -1.40109  -1.39407  -1.38560  -1.26031
 Alpha  occ. eigenvalues --   -1.24052  -1.23784  -1.23372  -1.07511  -1.04615
 Alpha  occ. eigenvalues --   -1.03016  -0.98790  -0.96148  -0.91559  -0.89733
 Alpha  occ. eigenvalues --   -0.86458  -0.82532  -0.79630  -0.79013  -0.78288
 Alpha  occ. eigenvalues --   -0.73834  -0.72242  -0.68696  -0.68136  -0.66627
 Alpha  occ. eigenvalues --   -0.65904  -0.65335  -0.63977  -0.63534  -0.62883
 Alpha  occ. eigenvalues --   -0.61722  -0.60605  -0.60095  -0.59270  -0.58967
 Alpha  occ. eigenvalues --   -0.58517  -0.56987  -0.56247  -0.56003  -0.55242
 Alpha  occ. eigenvalues --   -0.54927  -0.54116  -0.53679  -0.52929  -0.52852
 Alpha  occ. eigenvalues --   -0.52328  -0.51836  -0.50175  -0.49695  -0.43758
 Alpha  occ. eigenvalues --   -0.42662  -0.42201  -0.41481  -0.40913  -0.39865
 Alpha  occ. eigenvalues --   -0.38488  -0.37815
 Alpha virt. eigenvalues --    0.17606   0.18399   0.19564   0.21059   0.21417
 Alpha virt. eigenvalues --    0.21895   0.23928   0.26094   0.26330   0.27661
 Alpha virt. eigenvalues --    0.27695   0.28954   0.29047   0.30207   0.30337

 Mulliken atomic charges:
              1
     1  H    0.208406
     2  C   -0.576434
     3  H    0.205204
     4  H    0.174174
     5  C    0.754534
     6  O   -0.621689
     7  N   -0.821427
     8  H    0.418517
     9  C   -0.033999
    10  H    0.214552
    11  C   -0.484226
    12  H    0.181348
    13  H    0.159351
    14  H    0.211485
    15  C    0.790225
    16  O   -0.633240
    17  N   -0.840197
    18  H    0.391730
    19  C   -0.028389
    20  H    0.204465
    21  C   -0.458800
    22  H    0.194578
    23  H    0.192687
    24  H    0.147590
    25  C    0.795589
    26  O   -0.622321
    27  N   -0.801281
    28  H    0.420815
    29  C   -0.045420
    30  H    0.206390
    31  C   -0.485016
    32  H    0.196156
    33  H    0.152187
    34  H    0.209346
    35  C    0.782998
    36  O   -0.631450
    37  N   -0.800597
    38  H    0.389148
    39  C   -0.271241
    40  H    0.183322
    41  H    0.170056
    42  H    0.200873
 Sum of Mulliken atomic charges =   0.00000

 Dipole moment (field-independent basis, Debye):
    X=              3.1375    Y=             -0.0248    Z=             -0.1394  Tot=              3.1407
 Quadrupole moment (field-independent basis, Debye-Ang):
   XX=           -114.5740   YY=           -118.1561   ZZ=           -121.3311
   XY=            -15.7112   XZ=             -6.7718   YZ=            -13.8897

 Normal termination of Gaussian 09 at Mon Dec 26 14:15:18 2016.
