 Gaussian 09, Revision A.02,
 Gaussian 09:  EM64L-G09RevA.02 11-Jun-2009

 -------------------------------------------
 # HF/6-31G* Opt=(ModRedundant) geom=nocrowd
 -------------------------------------------

 ------------------
 Phi Psi fixed scan
 ------------------
 Symbolic Z-matrix:
 Charge =  0 Multiplicity = 1

 SCF Done:  E(RHF) =  -492.829697248     A.U. after   15 cycles
 SCF Done:  E(RHF) =  -492.841565626     A.U. after   14 cycles
 SCF Done:  E(RHF) =  -492.844993864     A.U. after   14 cycles
 SCF Done:  E(RHF) =  -492.845506483     A.U. after   13 cycles
 SCF Done:  E(RHF) =  -492.846068780     A.U. after   14 cycles
 SCF Done:  E(RHF) =  -492.846553456     A.U. after   13 cycles
 SCF Done:  E(RHF) =  -492.846772590     A.U. after   14 cycles
 SCF Done:  E(RHF) =  -492.847027698     A.U. after   13 cycles
 SCF Done:  E(RHF) =  -492.847069181     A.U. after   11 cycles
 SCF Done:  E(RHF) =  -492.847104170     A.U. after   11 cycles
 SCF Done:  E(RHF) =  -492.847194573     A.U. after   15 cycles
 SCF Done:  E(RHF) =  -492.847301294     A.U. after   12 cycles
 SCF Done:  E(RHF) =  -492.847294949     A.U. after   12 cycles
 SCF Done:  E(RHF) =  -492.847475747     A.U. after   12 cycles
 SCF Done:  E(RHF) =  -492.847589324     A.U. after   11 cycles
 SCF Done:  E(RHF) =  -492.847634814     A.U. after   11 cycles
 SCF Done:  E(RHF) =  -492.847638918     A.U. after   11 cycles
 SCF Done:  E(RHF) =  -492.847641543     A.U. after   10 cycles
 SCF Done:  E(RHF) =  -492.847641933     A.U. after   10 cycles
 SCF Done:  E(RHF) =  -492.847641971     A.U. after    7 cycles
 Optimization completed.
    -- Stationary point found.

                         Standard orientation:
 ---------------------------------------------------------------------
 Center     Atomic      Atomic             Coordinates (Angstroms)
 Number     Number       Type             X           Y           Z
 ---------------------------------------------------------------------
      1          1           0       -3.935899   -1.130317    0.590759
      2          6           0       -2.962612   -0.922592    1.010215
      3          1           0       -2.480201   -1.864166    1.255264
      4          1           0       -3.072441   -0.348114    1.923718
      5          6           0       -2.127854   -0.193865   -0.019919
      6          8           0       -2.399245   -0.194918   -1.183405
      7          7           0       -1.057946    0.491985    0.495288
      8          1           0       -0.839553    0.312643    1.451318
      9          6           0        0.054092    0.906575   -0.341287
     10          1           0       -0.328919    0.943096   -1.348991
     11          6           0        0.537615    2.295771    0.067628
     12          1           0        0.836360    2.334617    1.111999
     13          1           0        1.375002    2.619362   -0.543046
     14          1           0       -0.269470    3.005139   -0.064657
     15          6           0        1.109037   -0.212220   -0.352435
     16          8           0        0.894455   -1.242649   -0.927079
     17          7           0        2.232106   -0.017589    0.377591
     18          1           0        2.447476    0.893972    0.703894
     19          6           0        3.290160   -1.007123    0.386182
     20          1           0        2.881964   -1.977326    0.628486
     21          1           0        3.785196   -1.077142   -0.576156
     22          1           0        4.017057   -0.731275    1.138816
 ---------------------------------------------------------------------

 The electronic state is 1-A.
 Alpha  occ. eigenvalues --  -20.52234 -20.52059 -15.59104 -15.58545 -11.34520
 Alpha  occ. eigenvalues --  -11.34433 -11.27848 -11.26126 -11.23714 -11.22919
 Alpha  occ. eigenvalues --   -1.39565  -1.38662  -1.24149  -1.23212  -1.05771
 Alpha  occ. eigenvalues --   -0.99242  -0.95900  -0.88806  -0.79463  -0.79268
 Alpha  occ. eigenvalues --   -0.72919  -0.67085  -0.65867  -0.64734  -0.62749
 Alpha  occ. eigenvalues --   -0.61602  -0.59141  -0.58790  -0.57588  -0.56519
 Alpha  occ. eigenvalues --   -0.55847  -0.54870  -0.52702  -0.51406  -0.50567
 Alpha  occ. eigenvalues --   -0.43673  -0.41434  -0.39367  -0.37962
 Alpha virt. eigenvalues --    0.18344   0.20436   0.22275   0.23568   0.25586
 Alpha virt. eigenvalues --    0.27917   0.28156   0.29916   0.30284   0.31370
 Alpha virt. eigenvalues --    0.32444   0.33283   0.33647   0.34162   0.37767

 Mulliken atomic charges:
              1
     1  H    0.215628
     2  C   -0.593707
     3  H    0.201916
     4  H    0.175388
     5  C    0.757154
     6  O   -0.581625
     7  N   -0.787682
     8  H    0.373848
     9  C   -0.055411
    10  H    0.260466
    11  C   -0.506951
    12  H    0.151877
    13  H    0.173096
    14  H    0.203148
    15  C    0.743933
    16  O   -0.597845
    17  N   -0.803933
    18  H    0.392998
    19  C   -0.273012
    20  H    0.202914
    21  H    0.181780
    22  H    0.166019
 Sum of Mulliken atomic charges =   0.00000

 Dipole moment (field-independent basis, Debye):
    X=              3.0597    Y=              2.6964    Z=              5.0314  Tot=              6.4767
 Quadrupole moment (field-independent basis, Debye-Ang):
   XX=            -55.2508   YY=            -60.6821   ZZ=            -62.8081
   XY=              3.5281   XZ=             -5.2812   YZ=             -4.3779

 Normal termination of Gaussian 09 at Fri Feb 10 16:26:18 2017.
