 Gaussian 09, Revision A.02,
 Gaussian 09:  EM64L-G09RevA.02 11-Jun-2009

 -------------------------------------------
 # HF/6-31G* Opt=(ModRedundant) geom=nocrowd
 -------------------------------------------

 ------------------
 Phi Psi fixed scan
 ------------------
 Symbolic Z-matrix:
 Charge =  0 Multiplicity = 1

 SCF Done:  E(RHF) =  -492.839728260     A.U. after   15 cycles
 SCF Done:  E(RHF) =  -492.848426245     A.U. after   14 cycles
 SCF Done:  E(RHF) =  -492.850927065     A.U. after   13 cycles
 SCF Done:  E(RHF) =  -492.852096640     A.U. after   13 cycles
 SCF Done:  E(RHF) =  -492.853550219     A.U. after   15 cycles
 SCF Done:  E(RHF) =  -492.853567243     A.U. after   12 cycles
 SCF Done:  E(RHF) =  -492.854028208     A.U. after   13 cycles
 SCF Done:  E(RHF) =  -492.854104559     A.U. after   12 cycles
 SCF Done:  E(RHF) =  -492.854129050     A.U. after   11 cycles
 SCF Done:  E(RHF) =  -492.854165364     A.U. after   11 cycles
 SCF Done:  E(RHF) =  -492.854465761     A.U. after   14 cycles
 SCF Done:  E(RHF) =  -492.854479113     A.U. after   10 cycles
 SCF Done:  E(RHF) =  -492.854622888     A.U. after   11 cycles
 SCF Done:  E(RHF) =  -492.854666496     A.U. after   12 cycles
 SCF Done:  E(RHF) =  -492.854693082     A.U. after   11 cycles
 SCF Done:  E(RHF) =  -492.854694578     A.U. after   10 cycles
 SCF Done:  E(RHF) =  -492.854696140     A.U. after   10 cycles
 SCF Done:  E(RHF) =  -492.854696907     A.U. after    9 cycles
 SCF Done:  E(RHF) =  -492.854697065     A.U. after    8 cycles
 SCF Done:  E(RHF) =  -492.854697110     A.U. after    7 cycles
 Optimization completed.
    -- Stationary point found.

                         Standard orientation:
 ---------------------------------------------------------------------
 Center     Atomic      Atomic             Coordinates (Angstroms)
 Number     Number       Type             X           Y           Z
 ---------------------------------------------------------------------
      1          1           0        4.017796   -1.116635    0.006474
      2          6           0        3.168845   -0.856290   -0.608330
      3          1           0        2.737541   -1.764326   -1.018667
      4          1           0        3.489721   -0.229112   -1.432802
      5          6           0        2.130652   -0.166001    0.245478
      6          8           0        2.148227   -0.207386    1.442220
      7          7           0        1.182802    0.530806   -0.457562
      8          1           0        1.102135    0.273135   -1.417338
      9          6           0       -0.067775    0.876703    0.174612
     10          1           0        0.123679    0.924309    1.237781
     11          6           0       -0.539258    2.247996   -0.321959
     12          1           0       -0.780604    2.222675   -1.379971
     13          1           0       -1.414584    2.603773    0.209813
     14          1           0        0.254685    2.968077   -0.171171
     15          6           0       -1.086149   -0.251307   -0.062357
     16          8           0       -0.743168   -1.320173   -0.489847
     17          7           0       -2.382087    0.041505    0.186027
     18          1           0       -2.596902    0.871358    0.686924
     19          6           0       -3.401951   -0.985740    0.118856
     20          1           0       -3.330143   -1.506872   -0.824074
     21          1           0       -3.301938   -1.710640    0.919434
     22          1           0       -4.373052   -0.513619    0.187564
 ---------------------------------------------------------------------

 The electronic state is 1-A.
 Alpha  occ. eigenvalues --  -20.52921 -20.52069 -15.59055 -15.57626 -11.34744
 Alpha  occ. eigenvalues --  -11.34240 -11.27848 -11.26085 -11.23411 -11.22420
 Alpha  occ. eigenvalues --   -1.39982  -1.38617  -1.23769  -1.23381  -1.05527
 Alpha  occ. eigenvalues --   -0.98924  -0.95843  -0.88289  -0.79597  -0.78482
 Alpha  occ. eigenvalues --   -0.73170  -0.67054  -0.65962  -0.63826  -0.62967
 Alpha  occ. eigenvalues --   -0.61805  -0.59572  -0.58476  -0.57205  -0.56293
 Alpha  occ. eigenvalues --   -0.55728  -0.54271  -0.53567  -0.51137  -0.50021
 Alpha  occ. eigenvalues --   -0.42755  -0.41537  -0.39552  -0.38985
 Alpha virt. eigenvalues --    0.19196   0.20525   0.21586   0.23606   0.26229
 Alpha virt. eigenvalues --    0.27586   0.29257   0.30295   0.31273   0.31618
 Alpha virt. eigenvalues --    0.31842   0.33446   0.33656   0.34517   0.38174

 Mulliken atomic charges:
              1
     1  H    0.211276
     2  C   -0.596805
     3  H    0.208759
     4  H    0.179928
     5  C    0.751543
     6  O   -0.598587
     7  N   -0.758815
     8  H    0.380037
     9  C   -0.093890
    10  H    0.252705
    11  C   -0.474259
    12  H    0.170180
    13  H    0.152689
    14  H    0.196054
    15  C    0.763603
    16  O   -0.614934
    17  N   -0.794768
    18  H    0.386199
    19  C   -0.274247
    20  H    0.203965
    21  H    0.180778
    22  H    0.168592
 Sum of Mulliken atomic charges =   0.00000

 Dipole moment (field-independent basis, Debye):
    X=             -2.8192    Y=              2.5169    Z=             -1.8951  Tot=              4.2278
 Quadrupole moment (field-independent basis, Debye-Ang):
   XX=            -51.6295   YY=            -61.9682   ZZ=            -62.8993
   XY=             -2.9711   XZ=            -10.4448   YZ=              0.8460

 Normal termination of Gaussian 09 at Fri Feb 10 16:12:12 2017.
