 Gaussian 09, Revision A.02,
 Gaussian 09:  EM64L-G09RevA.02 11-Jun-2009

 -------------------------------------------
 # HF/6-31G* Opt=(ModRedundant) geom=nocrowd
 -------------------------------------------

 ------------------
 Phi Psi fixed scan
 ------------------
 Symbolic Z-matrix:
 Charge =  0 Multiplicity = 1

 SCF Done:  E(RHF) =  -492.834228979     A.U. after   15 cycles
 SCF Done:  E(RHF) =  -492.844864517     A.U. after   14 cycles
 SCF Done:  E(RHF) =  -492.848438492     A.U. after   13 cycles
 SCF Done:  E(RHF) =  -492.849486191     A.U. after   13 cycles
 SCF Done:  E(RHF) =  -492.850289902     A.U. after   15 cycles
 SCF Done:  E(RHF) =  -492.851284157     A.U. after   13 cycles
 SCF Done:  E(RHF) =  -492.851487868     A.U. after   13 cycles
 SCF Done:  E(RHF) =  -492.851851427     A.U. after   12 cycles
 SCF Done:  E(RHF) =  -492.851905917     A.U. after   12 cycles
 SCF Done:  E(RHF) =  -492.851929623     A.U. after   11 cycles
 SCF Done:  E(RHF) =  -492.852343482     A.U. after   12 cycles
 SCF Done:  E(RHF) =  -492.852360158     A.U. after   10 cycles
 SCF Done:  E(RHF) =  -492.852383393     A.U. after   10 cycles
 SCF Done:  E(RHF) =  -492.852416002     A.U. after   11 cycles
 SCF Done:  E(RHF) =  -492.852440642     A.U. after   11 cycles
 SCF Done:  E(RHF) =  -492.852432361     A.U. after   11 cycles
 SCF Done:  E(RHF) =  -492.852439615     A.U. after   10 cycles
 SCF Done:  E(RHF) =  -492.852441290     A.U. after    9 cycles
 SCF Done:  E(RHF) =  -492.852441804     A.U. after    8 cycles
 SCF Done:  E(RHF) =  -492.852441925     A.U. after    8 cycles
 Optimization completed.
    -- Stationary point found.

                         Standard orientation:
 ---------------------------------------------------------------------
 Center     Atomic      Atomic             Coordinates (Angstroms)
 Number     Number       Type             X           Y           Z
 ---------------------------------------------------------------------
      1          1           0        4.013868   -1.102369   -0.144405
      2          6           0        3.119959   -0.878990   -0.707867
      3          1           0        2.665121   -1.809966   -1.032316
      4          1           0        3.375323   -0.298831   -1.587966
      5          6           0        2.142656   -0.146254    0.181598
      6          8           0        2.241416   -0.132143    1.374095
      7          7           0        1.150910    0.525019   -0.487795
      8          1           0        1.028545    0.250541   -1.438469
      9          6           0       -0.069285    0.877822    0.202183
     10          1           0        0.179380    0.924376    1.253609
     11          6           0       -0.556124    2.253629   -0.260321
     12          1           0       -0.876194    2.239314   -1.297568
     13          1           0       -1.378705    2.623092    0.343865
     14          1           0        0.257279    2.961202   -0.166168
     15          6           0       -1.082479   -0.270160    0.043556
     16          8           0       -0.706104   -1.401158   -0.106842
     17          7           0       -2.392995    0.053090    0.039329
     18          1           0       -2.669040    0.975966    0.274289
     19          6           0       -3.412774   -0.975615    0.009541
     20          1           0       -3.228558   -1.651456   -0.812729
     21          1           0       -3.430814   -1.551839    0.927788
     22          1           0       -4.375822   -0.502983   -0.130836
 ---------------------------------------------------------------------

 The electronic state is 1-A.
 Alpha  occ. eigenvalues --  -20.52621 -20.51935 -15.59140 -15.57730 -11.34688
 Alpha  occ. eigenvalues --  -11.34171 -11.27860 -11.26142 -11.23521 -11.22393
 Alpha  occ. eigenvalues --   -1.39817  -1.38502  -1.23783  -1.23343  -1.05527
 Alpha  occ. eigenvalues --   -0.98914  -0.95870  -0.88498  -0.79608  -0.78599
 Alpha  occ. eigenvalues --   -0.73134  -0.66959  -0.65729  -0.64288  -0.62778
 Alpha  occ. eigenvalues --   -0.61661  -0.59467  -0.58557  -0.57178  -0.56230
 Alpha  occ. eigenvalues --   -0.55747  -0.54513  -0.53469  -0.51120  -0.49925
 Alpha  occ. eigenvalues --   -0.42794  -0.41349  -0.39508  -0.38769
 Alpha virt. eigenvalues --    0.19045   0.20492   0.22067   0.23624   0.26048
 Alpha virt. eigenvalues --    0.27568   0.29092   0.29588   0.31237   0.31559
 Alpha virt. eigenvalues --    0.31910   0.33540   0.33961   0.34681   0.38367

 Mulliken atomic charges:
              1
     1  H    0.211615
     2  C   -0.597656
     3  H    0.209489
     4  H    0.177484
     5  C    0.756958
     6  O   -0.595299
     7  N   -0.761623
     8  H    0.375752
     9  C   -0.085597
    10  H    0.258524
    11  C   -0.490740
    12  H    0.169702
    13  H    0.153308
    14  H    0.201283
    15  C    0.759982
    16  O   -0.611901
    17  N   -0.803446
    18  H    0.391408
    19  C   -0.271562
    20  H    0.201792
    21  H    0.183108
    22  H    0.167421
 Sum of Mulliken atomic charges =   0.00000

 Dipole moment (field-independent basis, Debye):
    X=             -3.1950    Y=              2.6568    Z=             -2.7615  Tot=              4.9892
 Quadrupole moment (field-independent basis, Debye-Ang):
   XX=            -51.9516   YY=            -62.1023   ZZ=            -62.4454
   XY=             -3.6808   XZ=             -9.1270   YZ=              1.6304

 Normal termination of Gaussian 09 at Fri Feb 10 16:16:48 2017.
