 Gaussian 09, Revision A.02,
 Gaussian 09:  EM64L-G09RevA.02 11-Jun-2009

 -------------------------------------------
 # HF/6-31G* Opt=(ModRedundant) geom=nocrowd
 -------------------------------------------

 ------------------
 Phi Psi fixed scan
 ------------------
 Symbolic Z-matrix:
 Charge =  0 Multiplicity = 1

 SCF Done:  E(RHF) =  -492.847642861     A.U. after   15 cycles
 SCF Done:  E(RHF) =  -492.854622115     A.U. after   14 cycles
 SCF Done:  E(RHF) =  -492.855951027     A.U. after   13 cycles
 SCF Done:  E(RHF) =  -492.856128221     A.U. after   13 cycles
 SCF Done:  E(RHF) =  -492.856276946     A.U. after   13 cycles
 SCF Done:  E(RHF) =  -492.856385041     A.U. after   12 cycles
 SCF Done:  E(RHF) =  -492.856423182     A.U. after   13 cycles
 SCF Done:  E(RHF) =  -492.856494214     A.U. after   12 cycles
 SCF Done:  E(RHF) =  -492.856519921     A.U. after   11 cycles
 SCF Done:  E(RHF) =  -492.856562868     A.U. after   11 cycles
 SCF Done:  E(RHF) =  -492.856831269     A.U. after   12 cycles
 SCF Done:  E(RHF) =  -492.856868421     A.U. after   11 cycles
 SCF Done:  E(RHF) =  -492.856890674     A.U. after   11 cycles
 SCF Done:  E(RHF) =  -492.856920392     A.U. after   12 cycles
 SCF Done:  E(RHF) =  -492.856936288     A.U. after   11 cycles
 SCF Done:  E(RHF) =  -492.856949060     A.U. after   11 cycles
 SCF Done:  E(RHF) =  -492.856952996     A.U. after   11 cycles
 SCF Done:  E(RHF) =  -492.856956414     A.U. after    9 cycles
 SCF Done:  E(RHF) =  -492.856959519     A.U. after   11 cycles
 SCF Done:  E(RHF) =  -492.856959588     A.U. after    8 cycles
 Optimization completed.
    -- Stationary point found.

                         Standard orientation:
 ---------------------------------------------------------------------
 Center     Atomic      Atomic             Coordinates (Angstroms)
 Number     Number       Type             X           Y           Z
 ---------------------------------------------------------------------
      1          1           0        3.613450   -1.609308   -0.138586
      2          6           0        3.210697   -0.682354   -0.520211
      3          1           0        3.055032   -0.764185   -1.590210
      4          1           0        3.935934    0.105672   -0.342030
      5          6           0        1.935419   -0.356013    0.227290
      6          8           0        1.717751   -0.765096    1.332853
      7          7           0        1.057679    0.441885   -0.438301
      8          1           0        1.328653    0.800638   -1.325772
      9          6           0       -0.095696    1.047278    0.205490
     10          1           0        0.134722    1.156276    1.256482
     11          6           0       -0.367504    2.425225   -0.397493
     12          1           0       -0.578384    2.350828   -1.461279
     13          1           0       -1.224116    2.873049    0.083965
     14          1           0        0.493576    3.070433   -0.260943
     15          6           0       -1.376996    0.207990    0.170028
     16          8           0       -2.378807    0.651996    0.666307
     17          7           0       -1.327955   -0.989316   -0.439054
     18          1           0       -0.437278   -1.353692   -0.678657
     19          6           0       -2.456238   -1.894259   -0.390589
     20          1           0       -3.356216   -1.369114   -0.674423
     21          1           0       -2.283763   -2.702661   -1.089076
     22          1           0       -2.599325   -2.308324    0.601649
 ---------------------------------------------------------------------

 The electronic state is 1-A.
 Alpha  occ. eigenvalues --  -20.53485 -20.51437 -15.59822 -15.57960 -11.36008
 Alpha  occ. eigenvalues --  -11.33764 -11.28044 -11.25244 -11.24425 -11.22931
 Alpha  occ. eigenvalues --   -1.40455  -1.38426  -1.25335  -1.22349  -1.06012
 Alpha  occ. eigenvalues --   -1.00090  -0.95849  -0.87966  -0.80965  -0.78438
 Alpha  occ. eigenvalues --   -0.72753  -0.68612  -0.67596  -0.63307  -0.62425
 Alpha  occ. eigenvalues --   -0.62175  -0.59624  -0.59301  -0.58392  -0.55513
 Alpha  occ. eigenvalues --   -0.54937  -0.54666  -0.53591  -0.52221  -0.49348
 Alpha  occ. eigenvalues --   -0.44060  -0.42894  -0.39095  -0.37976
 Alpha virt. eigenvalues --    0.19065   0.19925   0.20763   0.24813   0.25767
 Alpha virt. eigenvalues --    0.27847   0.28765   0.29457   0.30331   0.31099
 Alpha virt. eigenvalues --    0.32470   0.32878   0.34039   0.35048   0.37659

 Mulliken atomic charges:
              1
     1  H    0.217785
     2  C   -0.587522
     3  H    0.173896
     4  H    0.204498
     5  C    0.728306
     6  O   -0.590632
     7  N   -0.830601
     8  H    0.387350
     9  C   -0.021485
    10  H    0.244527
    11  C   -0.512314
    12  H    0.161647
    13  H    0.224928
    14  H    0.173589
    15  C    0.771010
    16  O   -0.626539
    17  N   -0.791610
    18  H    0.398995
    19  C   -0.274391
    20  H    0.201795
    21  H    0.164671
    22  H    0.182096
 Sum of Mulliken atomic charges =   0.00000

 Dipole moment (field-independent basis, Debye):
    X=              3.2629    Y=             -0.1849    Z=             -4.6731  Tot=              5.7025
 Quadrupole moment (field-independent basis, Debye-Ang):
   XX=            -63.2567   YY=            -55.9298   ZZ=            -63.7504
   XY=              6.8817   XZ=             -2.6488   YZ=              1.9964

 Normal termination of Gaussian 09 at Fri Feb 10 15:33:51 2017.
