 Gaussian 09, Revision A.02,
 Gaussian 09:  EM64L-G09RevA.02 11-Jun-2009

 -------------------------------------------
 # HF/6-31G* Opt=(ModRedundant) geom=nocrowd
 -------------------------------------------

 ------------------
 Phi Psi fixed scan
 ------------------
 Symbolic Z-matrix:
 Charge =  0 Multiplicity = 1

 SCF Done:  E(RHF) =  -492.851976484     A.U. after   15 cycles
 SCF Done:  E(RHF) =  -492.857430890     A.U. after   13 cycles
 SCF Done:  E(RHF) =  -492.857931431     A.U. after   13 cycles
 SCF Done:  E(RHF) =  -492.858468685     A.U. after   13 cycles
 SCF Done:  E(RHF) =  -492.858838127     A.U. after   13 cycles
 SCF Done:  E(RHF) =  -492.858980082     A.U. after   13 cycles
 SCF Done:  E(RHF) =  -492.858901782     A.U. after   12 cycles
 SCF Done:  E(RHF) =  -492.859119014     A.U. after   12 cycles
 SCF Done:  E(RHF) =  -492.859170172     A.U. after   11 cycles
 SCF Done:  E(RHF) =  -492.859296955     A.U. after   13 cycles
 SCF Done:  E(RHF) =  -492.859520391     A.U. after   12 cycles
 SCF Done:  E(RHF) =  -492.859567597     A.U. after   12 cycles
 SCF Done:  E(RHF) =  -492.859598125     A.U. after   11 cycles
 SCF Done:  E(RHF) =  -492.859604541     A.U. after   10 cycles
 SCF Done:  E(RHF) =  -492.859607977     A.U. after   10 cycles
 SCF Done:  E(RHF) =  -492.859608085     A.U. after    8 cycles
 SCF Done:  E(RHF) =  -492.859608223     A.U. after    8 cycles
 SCF Done:  E(RHF) =  -492.859608529     A.U. after    9 cycles
 SCF Done:  E(RHF) =  -492.859608719     A.U. after    9 cycles
 SCF Done:  E(RHF) =  -492.859608738     A.U. after    7 cycles
 Optimization completed.
    -- Stationary point found.

                         Standard orientation:
 ---------------------------------------------------------------------
 Center     Atomic      Atomic             Coordinates (Angstroms)
 Number     Number       Type             X           Y           Z
 ---------------------------------------------------------------------
      1          1           0       -3.857720   -1.338358    0.216985
      2          6           0       -3.108219   -0.791699    0.770770
      3          1           0       -2.754798   -1.419744    1.583081
      4          1           0       -3.545707    0.103353    1.197158
      5          6           0       -1.949449   -0.479578   -0.149760
      6          8           0       -1.707929   -1.143339   -1.122295
      7          7           0       -1.200470    0.596063    0.205533
      8          1           0       -1.309493    0.966556    1.123654
      9          6           0        0.038232    0.912357   -0.476233
     10          1           0       -0.066408    0.557564   -1.489347
     11          6           0        0.278410    2.419821   -0.477656
     12          1           0        0.370875    2.792668    0.535447
     13          1           0        1.195378    2.658035   -1.006378
     14          1           0       -0.545198    2.925185   -0.968341
     15          6           0        1.195348    0.204200    0.229827
     16          8           0        1.451690    0.449237    1.379654
     17          7           0        1.900160   -0.665058   -0.520183
     18          1           0        1.485338   -0.980929   -1.367401
     19          6           0        2.957802   -1.468435    0.056577
     20          1           0        3.607873   -0.838055    0.644604
     21          1           0        2.568627   -2.253021    0.697020
     22          1           0        3.530572   -1.917479   -0.743955
 ---------------------------------------------------------------------

 The electronic state is 1-A.
 Alpha  occ. eigenvalues --  -20.52716 -20.52312 -15.58747 -15.58676 -11.35234
 Alpha  occ. eigenvalues --  -11.34198 -11.27738 -11.25644 -11.23413 -11.22530
 Alpha  occ. eigenvalues --   -1.39759  -1.38902  -1.24209  -1.23260  -1.05694
 Alpha  occ. eigenvalues --   -0.99443  -0.96148  -0.87462  -0.80130  -0.78604
 Alpha  occ. eigenvalues --   -0.73070  -0.67657  -0.66553  -0.64249  -0.62315
 Alpha  occ. eigenvalues --   -0.62040  -0.59958  -0.58606  -0.57633  -0.56342
 Alpha  occ. eigenvalues --   -0.55204  -0.53828  -0.52195  -0.51812  -0.50784
 Alpha  occ. eigenvalues --   -0.43292  -0.42270  -0.39500  -0.38206
 Alpha virt. eigenvalues --    0.19314   0.20444   0.22490   0.23372   0.26581
 Alpha virt. eigenvalues --    0.26999   0.28767   0.30085   0.30966   0.31747
 Alpha virt. eigenvalues --    0.32381   0.33204   0.34126   0.35249   0.37864

 Mulliken atomic charges:
              1
     1  H    0.214224
     2  C   -0.586952
     3  H    0.202225
     4  H    0.181088
     5  C    0.746893
     6  O   -0.614836
     7  N   -0.783400
     8  H    0.393848
     9  C   -0.065710
    10  H    0.224413
    11  C   -0.490320
    12  H    0.189267
    13  H    0.176621
    14  H    0.181167
    15  C    0.776619
    16  O   -0.631769
    17  N   -0.786403
    18  H    0.398476
    19  C   -0.279173
    20  H    0.204513
    21  H    0.177602
    22  H    0.171611
 Sum of Mulliken atomic charges =   0.00000

 Dipole moment (field-independent basis, Debye):
    X=             -0.3273    Y=              0.4805    Z=             -0.2723  Tot=              0.6420
 Quadrupole moment (field-independent basis, Debye-Ang):
   XX=            -55.4972   YY=            -59.1757   ZZ=            -64.2406
   XY=             -6.3013   XZ=            -11.1863   YZ=             -3.3675

 Normal termination of Gaussian 09 at Fri Feb 10 15:58:55 2017.
