 Gaussian 09, Revision A.02,
 Gaussian 09:  EM64L-G09RevA.02 11-Jun-2009

 -------------------------------------------
 # HF/6-31G* Opt=(ModRedundant) geom=nocrowd
 -------------------------------------------

 ------------------
 Phi Psi fixed scan
 ------------------
 Symbolic Z-matrix:
 Charge =  0 Multiplicity = 1

 SCF Done:  E(RHF) =  -492.853948983     A.U. after   15 cycles
 SCF Done:  E(RHF) =  -492.859613481     A.U. after   13 cycles
 SCF Done:  E(RHF) =  -492.860142805     A.U. after   13 cycles
 SCF Done:  E(RHF) =  -492.860168751     A.U. after   13 cycles
 SCF Done:  E(RHF) =  -492.860424896     A.U. after   12 cycles
 SCF Done:  E(RHF) =  -492.860493527     A.U. after   11 cycles
 SCF Done:  E(RHF) =  -492.860545509     A.U. after   12 cycles
 SCF Done:  E(RHF) =  -492.860574763     A.U. after   10 cycles
 SCF Done:  E(RHF) =  -492.860633024     A.U. after   11 cycles
 SCF Done:  E(RHF) =  -492.860708323     A.U. after   12 cycles
 SCF Done:  E(RHF) =  -492.861127846     A.U. after   11 cycles
 SCF Done:  E(RHF) =  -492.861083756     A.U. after   11 cycles
 SCF Done:  E(RHF) =  -492.861125764     A.U. after   11 cycles
 SCF Done:  E(RHF) =  -492.861107736     A.U. after   11 cycles
 SCF Done:  E(RHF) =  -492.861081490     A.U. after   11 cycles
 SCF Done:  E(RHF) =  -492.861106415     A.U. after   11 cycles
 SCF Done:  E(RHF) =  -492.861122420     A.U. after   11 cycles
 SCF Done:  E(RHF) =  -492.861132996     A.U. after   11 cycles
 SCF Done:  E(RHF) =  -492.861134067     A.U. after    9 cycles
 SCF Done:  E(RHF) =  -492.861134079     A.U. after    7 cycles
 Optimization completed.
    -- Stationary point found.

                         Standard orientation:
 ---------------------------------------------------------------------
 Center     Atomic      Atomic             Coordinates (Angstroms)
 Number     Number       Type             X           Y           Z
 ---------------------------------------------------------------------
      1          1           0       -3.954578   -0.754581    0.129627
      2          6           0       -3.088400   -0.709717    0.777852
      3          1           0       -2.981030   -1.678431    1.251148
      4          1           0       -3.251022    0.042424    1.539871
      5          6           0       -1.866498   -0.451835   -0.074558
      6          8           0       -1.590996   -1.166093   -1.006218
      7          7           0       -1.110098    0.611983    0.268678
      8          1           0       -1.320241    1.117123    1.099043
      9          6           0        0.077690    0.995154   -0.479702
     10          1           0       -0.076030    0.664467   -1.495681
     11          6           0        0.263065    2.505802   -0.443957
     12          1           0        0.422496    2.851233    0.569909
     13          1           0        1.130688    2.792272   -1.026596
     14          1           0       -0.610014    2.997076   -0.858967
     15          6           0        1.290657    0.273885    0.118001
     16          8           0        1.939263    0.756741    1.007621
     17          7           0        1.552296   -0.928471   -0.431614
     18          1           0        0.837842   -1.332745   -0.997513
     19          6           0        2.562706   -1.801647    0.125295
     20          1           0        3.477379   -1.247425    0.275974
     21          1           0        2.258348   -2.224198    1.077760
     22          1           0        2.749316   -2.606829   -0.572824
 ---------------------------------------------------------------------

 The electronic state is 1-A.
 Alpha  occ. eigenvalues --  -20.53151 -20.52013 -15.59847 -15.57624 -11.36000
 Alpha  occ. eigenvalues --  -11.33785 -11.27900 -11.25067 -11.24102 -11.22371
 Alpha  occ. eigenvalues --   -1.40138  -1.38635  -1.24959  -1.22480  -1.05894
 Alpha  occ. eigenvalues --   -0.99873  -0.95876  -0.87424  -0.80969  -0.77982
 Alpha  occ. eigenvalues --   -0.72706  -0.68444  -0.67222  -0.64124  -0.62304
 Alpha  occ. eigenvalues --   -0.61626  -0.60045  -0.59124  -0.57943  -0.55636
 Alpha  occ. eigenvalues --   -0.54601  -0.53668  -0.52295  -0.51703  -0.51473
 Alpha  occ. eigenvalues --   -0.43756  -0.42801  -0.38875  -0.38087
 Alpha virt. eigenvalues --    0.18577   0.20799   0.21973   0.24842   0.26169
 Alpha virt. eigenvalues --    0.27037   0.28471   0.30706   0.31364   0.32495
 Alpha virt. eigenvalues --    0.32817   0.33234   0.34036   0.35280   0.38201

 Mulliken atomic charges:
              1
     1  H    0.212336
     2  C   -0.575247
     3  H    0.209579
     4  H    0.171543
     5  C    0.758982
     6  O   -0.630886
     7  N   -0.800229
     8  H    0.394167
     9  C   -0.067592
    10  H    0.228552
    11  C   -0.489395
    12  H    0.190614
    13  H    0.184397
    14  H    0.172332
    15  C    0.774807
    16  O   -0.623023
    17  N   -0.796642
    18  H    0.419403
    19  C   -0.277132
    20  H    0.200872
    21  H    0.170977
    22  H    0.171585
 Sum of Mulliken atomic charges =   0.00000

 Dipole moment (field-independent basis, Debye):
    X=             -2.2807    Y=              0.2336    Z=              0.4627  Tot=              2.3388
 Quadrupole moment (field-independent basis, Debye-Ang):
   XX=            -59.4899   YY=            -58.4470   ZZ=            -62.7946
   XY=             -7.7182   XZ=             -9.9151   YZ=             -3.9509

 Normal termination of Gaussian 09 at Fri Feb 10 15:53:32 2017.
