 Gaussian 09, Revision A.02,
 Gaussian 09:  EM64L-G09RevA.02 11-Jun-2009

 -------------------------------------------
 # HF/6-31G* Opt=(ModRedundant) geom=nocrowd
 -------------------------------------------

 ------------------
 Phi Psi fixed scan
 ------------------
 Symbolic Z-matrix:
 Charge =  0 Multiplicity = 1

 SCF Done:  E(RHF) =  -492.831035178     A.U. after   15 cycles
 SCF Done:  E(RHF) =  -492.842877274     A.U. after   14 cycles
 SCF Done:  E(RHF) =  -492.846762680     A.U. after   14 cycles
 SCF Done:  E(RHF) =  -492.847434905     A.U. after   13 cycles
 SCF Done:  E(RHF) =  -492.848345711     A.U. after   15 cycles
 SCF Done:  E(RHF) =  -492.849151543     A.U. after   13 cycles
 SCF Done:  E(RHF) =  -492.849366802     A.U. after   14 cycles
 SCF Done:  E(RHF) =  -492.849824640     A.U. after   12 cycles
 SCF Done:  E(RHF) =  -492.849867553     A.U. after   12 cycles
 SCF Done:  E(RHF) =  -492.849889032     A.U. after   11 cycles
 SCF Done:  E(RHF) =  -492.849916785     A.U. after   15 cycles
 SCF Done:  E(RHF) =  -492.850242005     A.U. after   13 cycles
 SCF Done:  E(RHF) =  -492.850098506     A.U. after   12 cycles
 SCF Done:  E(RHF) =  -492.850213170     A.U. after   12 cycles
 SCF Done:  E(RHF) =  -492.850330394     A.U. after   12 cycles
 SCF Done:  E(RHF) =  -492.850345628     A.U. after   11 cycles
 SCF Done:  E(RHF) =  -492.850367423     A.U. after   11 cycles
 SCF Done:  E(RHF) =  -492.850377774     A.U. after   11 cycles
 SCF Done:  E(RHF) =  -492.850378953     A.U. after   10 cycles
 SCF Done:  E(RHF) =  -492.850379017     A.U. after    8 cycles
 Optimization completed.
    -- Stationary point found.

                         Standard orientation:
 ---------------------------------------------------------------------
 Center     Atomic      Atomic             Coordinates (Angstroms)
 Number     Number       Type             X           Y           Z
 ---------------------------------------------------------------------
      1          1           0        3.997779   -1.100755   -0.316161
      2          6           0        3.065451   -0.896449   -0.821596
      3          1           0        2.596667   -1.838497   -1.089492
      4          1           0        3.255895   -0.338365   -1.732010
      5          6           0        2.147108   -0.147129    0.116198
      6          8           0        2.321565   -0.114002    1.298705
      7          7           0        1.117417    0.518611   -0.500781
      8          1           0        0.956195    0.263373   -1.451038
      9          6           0       -0.066766    0.881832    0.248774
     10          1           0        0.236596    0.920727    1.285410
     11          6           0       -0.560829    2.264121   -0.178429
     12          1           0       -0.896772    2.273635   -1.211264
     13          1           0       -1.372669    2.615540    0.451461
     14          1           0        0.253235    2.971071   -0.084861
     15          6           0       -1.085622   -0.268647    0.153654
     16          8           0       -0.719764   -1.408052    0.257016
     17          7           0       -2.372890    0.047367   -0.098752
     18          1           0       -2.657269    0.996848   -0.091899
     19          6           0       -3.399178   -0.974811   -0.120309
     20          1           0       -3.117929   -1.766948   -0.799218
     21          1           0       -3.554868   -1.406943    0.861533
     22          1           0       -4.323941   -0.528600   -0.461244
 ---------------------------------------------------------------------

 The electronic state is 1-A.
 Alpha  occ. eigenvalues --  -20.52353 -20.51881 -15.59201 -15.57954 -11.34602
 Alpha  occ. eigenvalues --  -11.34208 -11.27855 -11.26179 -11.23571 -11.22493
 Alpha  occ. eigenvalues --   -1.39661  -1.38468  -1.23832  -1.23342  -1.05575
 Alpha  occ. eigenvalues --   -0.98979  -0.95897  -0.88634  -0.79607  -0.78775
 Alpha  occ. eigenvalues --   -0.73072  -0.66929  -0.65618  -0.64626  -0.62696
 Alpha  occ. eigenvalues --   -0.61571  -0.59281  -0.58665  -0.57249  -0.56241
 Alpha  occ. eigenvalues --   -0.55773  -0.54725  -0.53310  -0.51169  -0.49957
 Alpha  occ. eigenvalues --   -0.43000  -0.41267  -0.39450  -0.38448
 Alpha virt. eigenvalues --    0.18687   0.20623   0.22417   0.23613   0.25835
 Alpha virt. eigenvalues --    0.27621   0.28810   0.29451   0.30949   0.31494
 Alpha virt. eigenvalues --    0.32093   0.33464   0.33889   0.34642   0.38156

 Mulliken atomic charges:
              1
     1  H    0.212652
     2  C   -0.597061
     3  H    0.208120
     4  H    0.175782
     5  C    0.760671
     6  O   -0.591245
     7  N   -0.768556
     8  H    0.373535
     9  C   -0.075325
    10  H    0.259705
    11  C   -0.502927
    12  H    0.165032
    13  H    0.159738
    14  H    0.204081
    15  C    0.755023
    16  O   -0.608304
    17  N   -0.807238
    18  H    0.395106
    19  C   -0.270520
    20  H    0.200358
    21  H    0.184676
    22  H    0.166694
 Sum of Mulliken atomic charges =   0.00000

 Dipole moment (field-independent basis, Debye):
    X=             -3.3640    Y=              2.7262    Z=             -3.5816  Tot=              5.6193
 Quadrupole moment (field-independent basis, Debye-Ang):
   XX=            -52.7759   YY=            -61.9896   ZZ=            -62.1535
   XY=             -3.8920   XZ=             -7.8050   YZ=              2.5778

 Normal termination of Gaussian 09 at Fri Feb 10 16:20:02 2017.
