 Gaussian 09, Revision A.02,
 Gaussian 09:  EM64L-G09RevA.02 11-Jun-2009

 -------------------------------------------
 # HF/6-31G* Opt=(ModRedundant) geom=nocrowd
 -------------------------------------------

 ------------------
 Phi Psi fixed scan
 ------------------
 Symbolic Z-matrix:
 Charge =  0 Multiplicity = 1

 SCF Done:  E(RHF) =  -492.847944957     A.U. after   15 cycles
 SCF Done:  E(RHF) =  -492.854457820     A.U. after   16 cycles
 SCF Done:  E(RHF) =  -492.855450874     A.U. after   16 cycles
 SCF Done:  E(RHF) =  -492.856314756     A.U. after   14 cycles
 SCF Done:  E(RHF) =  -492.857095647     A.U. after   14 cycles
 SCF Done:  E(RHF) =  -492.857545391     A.U. after   13 cycles
 SCF Done:  E(RHF) =  -492.857842828     A.U. after   13 cycles
 SCF Done:  E(RHF) =  -492.857874859     A.U. after   11 cycles
 SCF Done:  E(RHF) =  -492.857906461     A.U. after   11 cycles
 SCF Done:  E(RHF) =  -492.857954912     A.U. after   11 cycles
 SCF Done:  E(RHF) =  -492.858062528     A.U. after   11 cycles
 SCF Done:  E(RHF) =  -492.858122560     A.U. after   11 cycles
 SCF Done:  E(RHF) =  -492.858196088     A.U. after   14 cycles
 SCF Done:  E(RHF) =  -492.858213523     A.U. after   12 cycles
 SCF Done:  E(RHF) =  -492.858244376     A.U. after   11 cycles
 SCF Done:  E(RHF) =  -492.858294005     A.U. after   11 cycles
 SCF Done:  E(RHF) =  -492.858305558     A.U. after   11 cycles
 SCF Done:  E(RHF) =  -492.858313167     A.U. after   11 cycles
 SCF Done:  E(RHF) =  -492.858315770     A.U. after   10 cycles
 SCF Done:  E(RHF) =  -492.858316162     A.U. after    9 cycles
 Optimization completed.
    -- Stationary point found.

                         Standard orientation:
 ---------------------------------------------------------------------
 Center     Atomic      Atomic             Coordinates (Angstroms)
 Number     Number       Type             X           Y           Z
 ---------------------------------------------------------------------
      1          1           0        3.978115   -1.225919    0.088424
      2          6           0        3.206007   -0.827814   -0.553369
      3          1           0        2.817537   -1.628462   -1.175783
      4          1           0        3.622565   -0.066144   -1.202818
      5          6           0        2.086848   -0.277473    0.301021
      6          8           0        1.974029   -0.543310    1.464851
      7          7           0        1.225934    0.558320   -0.353656
      8          1           0        1.216371    0.474331   -1.347264
      9          6           0       -0.054051    0.882095    0.227123
     10          1           0        0.060339    0.825120    1.299475
     11          6           0       -0.474467    2.300409   -0.174585
     12          1           0       -0.580891    2.378621   -1.252131
     13          1           0       -1.422032    2.574796    0.274404
     14          1           0        0.280733    3.007218    0.146319
     15          6           0       -1.108355   -0.131579   -0.230938
     16          8           0       -0.937246   -0.818925   -1.201934
     17          7           0       -2.258741   -0.134410    0.475954
     18          1           0       -2.263498    0.309358    1.365741
     19          6           0       -3.319504   -1.076700    0.184572
     20          1           0       -3.518071   -1.079162   -0.876681
     21          1           0       -3.061080   -2.085487    0.488316
     22          1           0       -4.213564   -0.767381    0.709635
 ---------------------------------------------------------------------

 The electronic state is 1-A.
 Alpha  occ. eigenvalues --  -20.52929 -20.52358 -15.58974 -15.57737 -11.34630
 Alpha  occ. eigenvalues --  -11.34532 -11.27748 -11.26016 -11.23117 -11.22696
 Alpha  occ. eigenvalues --   -1.39935  -1.38842  -1.23787  -1.23480  -1.05619
 Alpha  occ. eigenvalues --   -0.99095  -0.96012  -0.87800  -0.79811  -0.78357
 Alpha  occ. eigenvalues --   -0.73186  -0.67249  -0.66262  -0.63622  -0.62864
 Alpha  occ. eigenvalues --   -0.62027  -0.59820  -0.58364  -0.57460  -0.56478
 Alpha  occ. eigenvalues --   -0.55639  -0.54029  -0.53315  -0.51357  -0.50191
 Alpha  occ. eigenvalues --   -0.42792  -0.41877  -0.39709  -0.38751
 Alpha virt. eigenvalues --    0.19312   0.20498   0.21570   0.23531   0.26500
 Alpha virt. eigenvalues --    0.27164   0.29507   0.30588   0.31279   0.31525
 Alpha virt. eigenvalues --    0.32448   0.32568   0.33836   0.34218   0.37585

 Mulliken atomic charges:
              1
     1  H    0.211987
     2  C   -0.593240
     3  H    0.204168
     4  H    0.183993
     5  C    0.742978
     6  O   -0.602322
     7  N   -0.764038
     8  H    0.389959
     9  C   -0.086373
    10  H    0.232794
    11  C   -0.475194
    12  H    0.173825
    13  H    0.170115
    14  H    0.190538
    15  C    0.769416
    16  O   -0.623409
    17  N   -0.789291
    18  H    0.384309
    19  C   -0.275264
    20  H    0.204713
    21  H    0.180495
    22  H    0.169842
 Sum of Mulliken atomic charges =   0.00000

 Dipole moment (field-independent basis, Debye):
    X=             -1.8573    Y=              2.0145    Z=             -0.3928  Tot=              2.7681
 Quadrupole moment (field-independent basis, Debye-Ang):
   XX=            -51.9058   YY=            -60.5675   ZZ=            -64.4228
   XY=             -0.1381   XZ=            -12.0004   YZ=              0.2853

 Normal termination of Gaussian 09 at Fri Feb 10 16:06:46 2017.
