 Gaussian 09, Revision A.02,
 Gaussian 09:  EM64L-G09RevA.02 11-Jun-2009

 -------------------------------------------
 # HF/6-31G* Opt=(ModRedundant) geom=nocrowd
 -------------------------------------------

 ------------------
 Phi Psi fixed scan
 ------------------
 Symbolic Z-matrix:
 Charge =  0 Multiplicity = 1

 SCF Done:  E(RHF) =  -492.839487318     A.U. after   15 cycles
 SCF Done:  E(RHF) =  -492.847725624     A.U. after   14 cycles
 SCF Done:  E(RHF) =  -492.848470317     A.U. after   13 cycles
 SCF Done:  E(RHF) =  -492.848460885     A.U. after   12 cycles
 SCF Done:  E(RHF) =  -492.848663497     A.U. after   12 cycles
 SCF Done:  E(RHF) =  -492.848795079     A.U. after   12 cycles
 SCF Done:  E(RHF) =  -492.849063404     A.U. after   14 cycles
 SCF Done:  E(RHF) =  -492.849131267     A.U. after   13 cycles
 SCF Done:  E(RHF) =  -492.849249402     A.U. after   13 cycles
 SCF Done:  E(RHF) =  -492.849341879     A.U. after   12 cycles
 SCF Done:  E(RHF) =  -492.849893492     A.U. after   13 cycles
 SCF Done:  E(RHF) =  -492.849939864     A.U. after   11 cycles
 SCF Done:  E(RHF) =  -492.849955762     A.U. after   11 cycles
 SCF Done:  E(RHF) =  -492.849963444     A.U. after   11 cycles
 SCF Done:  E(RHF) =  -492.849966394     A.U. after   11 cycles
 SCF Done:  E(RHF) =  -492.849968410     A.U. after   10 cycles
 SCF Done:  E(RHF) =  -492.849972796     A.U. after   11 cycles
 SCF Done:  E(RHF) =  -492.849977213     A.U. after   11 cycles
 SCF Done:  E(RHF) =  -492.849978075     A.U. after   11 cycles
 SCF Done:  E(RHF) =  -492.849978104     A.U. after    7 cycles
 Optimization completed.
    -- Stationary point found.

                         Standard orientation:
 ---------------------------------------------------------------------
 Center     Atomic      Atomic             Coordinates (Angstroms)
 Number     Number       Type             X           Y           Z
 ---------------------------------------------------------------------
      1          1           0        3.738398   -1.560127   -0.367588
      2          6           0        3.205855   -0.716310   -0.780843
      3          1           0        2.893874   -0.942235   -1.794605
      4          1           0        3.879130    0.135248   -0.814477
      5          6           0        2.029807   -0.393020    0.116663
      6          8           0        1.968825   -0.757641    1.253455
      7          7           0        1.047874    0.353639   -0.469876
      8          1           0        1.258082    0.759798   -1.354315
      9          6           0       -0.027862    0.958282    0.302943
     10          1           0        0.322974    1.095304    1.314399
     11          6           0       -0.424242    2.306295   -0.296657
     12          1           0       -0.747962    2.209932   -1.328213
     13          1           0       -1.241237    2.739723    0.267591
     14          1           0        0.415940    2.991588   -0.259982
     15          6           0       -1.240827    0.032066    0.435758
     16          8           0       -1.702977   -0.231388    1.508003
     17          7           0       -1.829577   -0.344954   -0.730962
     18          1           0       -1.252753   -0.339346   -1.541513
     19          6           0       -2.923510   -1.295105   -0.719226
     20          1           0       -3.677531   -0.962391   -0.022168
     21          1           0       -3.356223   -1.339402   -1.710423
     22          1           0       -2.602879   -2.289896   -0.426333
 ---------------------------------------------------------------------

 The electronic state is 1-A.
 Alpha  occ. eigenvalues --  -20.53039 -20.52166 -15.59511 -15.58008 -11.35438
 Alpha  occ. eigenvalues --  -11.33734 -11.27867 -11.25337 -11.23961 -11.23864
 Alpha  occ. eigenvalues --   -1.40018  -1.38834  -1.24923  -1.22348  -1.06140
 Alpha  occ. eigenvalues --   -0.99954  -0.95421  -0.88525  -0.80545  -0.78129
 Alpha  occ. eigenvalues --   -0.71842  -0.68199  -0.67499  -0.63382  -0.62673
 Alpha  occ. eigenvalues --   -0.62095  -0.59279  -0.58984  -0.58280  -0.56360
 Alpha  occ. eigenvalues --   -0.55319  -0.54654  -0.53587  -0.51667  -0.50376
 Alpha  occ. eigenvalues --   -0.43662  -0.42315  -0.38792  -0.38642
 Alpha virt. eigenvalues --    0.19005   0.20006   0.20175   0.24252   0.25997
 Alpha virt. eigenvalues --    0.27335   0.28204   0.29676   0.30612   0.30744
 Alpha virt. eigenvalues --    0.31785   0.33101   0.33701   0.34607   0.37322

 Mulliken atomic charges:
              1
     1  H    0.220561
     2  C   -0.591132
     3  H    0.176330
     4  H    0.195998
     5  C    0.742018
     6  O   -0.575092
     7  N   -0.820472
     8  H    0.378452
     9  C   -0.058220
    10  H    0.251356
    11  C   -0.505304
    12  H    0.162522
    13  H    0.202232
    14  H    0.179651
    15  C    0.771465
    16  O   -0.592462
    17  N   -0.777674
    18  H    0.373576
    19  C   -0.279991
    20  H    0.205917
    21  H    0.164931
    22  H    0.175339
 Sum of Mulliken atomic charges =   0.00000

 Dipole moment (field-independent basis, Debye):
    X=              1.1885    Y=              1.9227    Z=             -6.6295  Tot=              7.0043
 Quadrupole moment (field-independent basis, Debye-Ang):
   XX=            -57.9631   YY=            -57.5003   ZZ=            -65.4378
   XY=              3.2731   XZ=             -1.0682   YZ=              4.1812

 Normal termination of Gaussian 09 at Fri Feb 10 16:34:03 2017.
