 Gaussian 09, Revision A.02,
 Gaussian 09:  EM64L-G09RevA.02 11-Jun-2009

 -------------------------------------------
 # HF/6-31G* Opt=(ModRedundant) geom=nocrowd
 -------------------------------------------

 ------------------
 Phi Psi fixed scan
 ------------------
 Symbolic Z-matrix:
 Charge =  0 Multiplicity = 1

 SCF Done:  E(RHF) =  -492.835690801     A.U. after   15 cycles
 SCF Done:  E(RHF) =  -492.845034657     A.U. after   14 cycles
 SCF Done:  E(RHF) =  -492.846420597     A.U. after   14 cycles
 SCF Done:  E(RHF) =  -492.846642996     A.U. after   12 cycles
 SCF Done:  E(RHF) =  -492.846713340     A.U. after   13 cycles
 SCF Done:  E(RHF) =  -492.846779062     A.U. after   12 cycles
 SCF Done:  E(RHF) =  -492.846810235     A.U. after   13 cycles
 SCF Done:  E(RHF) =  -492.846884416     A.U. after   12 cycles
 SCF Done:  E(RHF) =  -492.846936740     A.U. after   12 cycles
 SCF Done:  E(RHF) =  -492.846960177     A.U. after   12 cycles
 SCF Done:  E(RHF) =  -492.846997222     A.U. after   11 cycles
 SCF Done:  E(RHF) =  -492.847023212     A.U. after   12 cycles
 SCF Done:  E(RHF) =  -492.847025995     A.U. after   11 cycles
 SCF Done:  E(RHF) =  -492.847027078     A.U. after    9 cycles
 SCF Done:  E(RHF) =  -492.847028140     A.U. after   10 cycles
 SCF Done:  E(RHF) =  -492.847030101     A.U. after   11 cycles
 SCF Done:  E(RHF) =  -492.847030818     A.U. after   10 cycles
 Optimization completed.
    -- Stationary point found.

                         Standard orientation:
 ---------------------------------------------------------------------
 Center     Atomic      Atomic             Coordinates (Angstroms)
 Number     Number       Type             X           Y           Z
 ---------------------------------------------------------------------
      1          1           0        3.917081   -1.222663   -0.471482
      2          6           0        2.958272   -1.032376   -0.930647
      3          1           0        2.491721   -1.984222   -1.166696
      4          1           0        3.098743   -0.483921   -1.855767
      5          6           0        2.086875   -0.278255    0.051835
      6          8           0        2.313093   -0.260275    1.225537
      7          7           0        1.034592    0.383432   -0.514414
      8          1           0        0.870529    0.232322   -1.484422
      9          6           0       -0.037851    0.975229    0.266359
     10          1           0        0.364907    1.151000    1.250031
     11          6           0       -0.486107    2.299725   -0.349150
     12          1           0       -0.795607    2.193681   -1.385820
     13          1           0       -1.317773    2.720437    0.205256
     14          1           0        0.336019    3.004635   -0.326119
     15          6           0       -1.176679   -0.030785    0.486852
     16          8           0       -1.330424   -0.569538    1.545816
     17          7           0       -1.975245   -0.267583   -0.583771
     18          1           0       -1.820372    0.238693   -1.423394
     19          6           0       -3.071637   -1.211105   -0.557938
     20          1           0       -3.200959   -1.552240    0.456124
     21          1           0       -3.988046   -0.737322   -0.891694
     22          1           0       -2.870260   -2.067436   -1.193412
 ---------------------------------------------------------------------

 The electronic state is 1-A.
 Alpha  occ. eigenvalues --  -20.52386 -20.52180 -15.59134 -15.58921 -11.35000
 Alpha  occ. eigenvalues --  -11.34365 -11.27850 -11.25926 -11.23809 -11.23459
 Alpha  occ. eigenvalues --   -1.39554  -1.38863  -1.24722  -1.22928  -1.06016
 Alpha  occ. eigenvalues --   -0.99589  -0.96040  -0.88754  -0.80133  -0.79270
 Alpha  occ. eigenvalues --   -0.72939  -0.67431  -0.66509  -0.64205  -0.62538
 Alpha  occ. eigenvalues --   -0.62049  -0.59651  -0.58890  -0.58034  -0.56804
 Alpha  occ. eigenvalues --   -0.55527  -0.54791  -0.52170  -0.51869  -0.51531
 Alpha  occ. eigenvalues --   -0.43946  -0.41753  -0.39018  -0.37891
 Alpha virt. eigenvalues --    0.18722   0.19366   0.21431   0.23944   0.25956
 Alpha virt. eigenvalues --    0.27243   0.28940   0.29735   0.30399   0.31754
 Alpha virt. eigenvalues --    0.31976   0.32886   0.33308   0.35004   0.36913

 Mulliken atomic charges:
              1
     1  H    0.218438
     2  C   -0.591535
     3  H    0.197402
     4  H    0.174896
     5  C    0.751897
     6  O   -0.579410
     7  N   -0.802686
     8  H    0.371329
     9  C   -0.073634
    10  H    0.267478
    11  C   -0.487480
    12  H    0.138738
    13  H    0.188467
    14  H    0.194874
    15  C    0.772692
    16  O   -0.596402
    17  N   -0.802947
    18  H    0.375940
    19  C   -0.285500
    20  H    0.232252
    21  H    0.167933
    22  H    0.167258
 Sum of Mulliken atomic charges =   0.00000

 Dipole moment (field-independent basis, Debye):
    X=             -1.5246    Y=              1.2682    Z=             -6.8176  Tot=              7.1002
 Quadrupole moment (field-independent basis, Debye-Ang):
   XX=            -58.8484   YY=            -57.7032   ZZ=            -65.1443
   XY=             -1.2732   XZ=             -2.1504   YZ=              3.7984

 Normal termination of Gaussian 09 at Fri Feb 10 16:31:18 2017.
