 Gaussian 09, Revision A.02,
 Gaussian 09:  EM64L-G09RevA.02 11-Jun-2009

 -------------------------------------------
 # HF/6-31G* Opt=(ModRedundant) geom=nocrowd
 -------------------------------------------

 ------------------
 Phi Psi fixed scan
 ------------------
 Symbolic Z-matrix:
 Charge =  0 Multiplicity = 1

 SCF Done:  E(RHF) =  -492.851073253     A.U. after   15 cycles
 SCF Done:  E(RHF) =  -492.856678489     A.U. after   13 cycles
 SCF Done:  E(RHF) =  -492.857281087     A.U. after   13 cycles
 SCF Done:  E(RHF) =  -492.858025558     A.U. after   13 cycles
 SCF Done:  E(RHF) =  -492.858603939     A.U. after   13 cycles
 SCF Done:  E(RHF) =  -492.858642375     A.U. after   13 cycles
 SCF Done:  E(RHF) =  -492.858866043     A.U. after   12 cycles
 SCF Done:  E(RHF) =  -492.858932731     A.U. after   12 cycles
 SCF Done:  E(RHF) =  -492.858968781     A.U. after   11 cycles
 SCF Done:  E(RHF) =  -492.859021259     A.U. after   12 cycles
 SCF Done:  E(RHF) =  -492.859293930     A.U. after   12 cycles
 SCF Done:  E(RHF) =  -492.859331736     A.U. after   12 cycles
 SCF Done:  E(RHF) =  -492.859335593     A.U. after   11 cycles
 SCF Done:  E(RHF) =  -492.859349070     A.U. after   10 cycles
 SCF Done:  E(RHF) =  -492.859355779     A.U. after   10 cycles
 SCF Done:  E(RHF) =  -492.859359399     A.U. after   10 cycles
 SCF Done:  E(RHF) =  -492.859367682     A.U. after   11 cycles
 SCF Done:  E(RHF) =  -492.859369066     A.U. after   10 cycles
 SCF Done:  E(RHF) =  -492.859369230     A.U. after    8 cycles
 SCF Done:  E(RHF) =  -492.859369235     A.U. after    6 cycles
 Optimization completed.
    -- Stationary point found.

                         Standard orientation:
 ---------------------------------------------------------------------
 Center     Atomic      Atomic             Coordinates (Angstroms)
 Number     Number       Type             X           Y           Z
 ---------------------------------------------------------------------
      1          1           0       -3.889010   -1.351114    0.162875
      2          6           0       -3.150683   -0.790446    0.717258
      3          1           0       -2.779998   -1.410278    1.528367
      4          1           0       -3.606018    0.094078    1.147473
      5          6           0       -2.003419   -0.441432   -0.204390
      6          8           0       -1.800388   -1.032437   -1.229643
      7          7           0       -1.223978    0.593235    0.214800
      8          1           0       -1.286239    0.853727    1.174860
      9          6           0        0.039125    0.883980   -0.426801
     10          1           0       -0.056380    0.578261   -1.457047
     11          6           0        0.343162    2.380720   -0.356504
     12          1           0        0.416298    2.706786    0.674909
     13          1           0        1.285060    2.603435   -0.846777
     14          1           0       -0.444488    2.940646   -0.846423
     15          6           0        1.159319    0.108412    0.267344
     16          8           0        1.251567    0.112932    1.467142
     17          7           0        2.041558   -0.510053   -0.541059
     18          1           0        1.784847   -0.647495   -1.491613
     19          6           0        3.118978   -1.315692   -0.005175
     20          1           0        3.615396   -0.773096    0.785350
     21          1           0        2.759343   -2.256829    0.396930
     22          1           0        3.829814   -1.517615   -0.795456
 ---------------------------------------------------------------------

 The electronic state is 1-A.
 Alpha  occ. eigenvalues --  -20.52569 -20.52482 -15.58912 -15.58289 -11.34938
 Alpha  occ. eigenvalues --  -11.34362 -11.27725 -11.25839 -11.23124 -11.22740
 Alpha  occ. eigenvalues --   -1.39732  -1.38922  -1.23950  -1.23465  -1.05663
 Alpha  occ. eigenvalues --   -0.99297  -0.96184  -0.87528  -0.79984  -0.78584
 Alpha  occ. eigenvalues --   -0.73162  -0.67446  -0.66396  -0.64093  -0.62431
 Alpha  occ. eigenvalues --   -0.62082  -0.59954  -0.58409  -0.57609  -0.56485
 Alpha  occ. eigenvalues --   -0.55428  -0.53908  -0.52578  -0.51642  -0.50491
 Alpha  occ. eigenvalues --   -0.43070  -0.42101  -0.39651  -0.38344
 Alpha virt. eigenvalues --    0.19493   0.20271   0.22312   0.23281   0.26691
 Alpha virt. eigenvalues --    0.26834   0.29190   0.30287   0.31039   0.31493
 Alpha virt. eigenvalues --    0.32335   0.33233   0.33880   0.34984   0.37831

 Mulliken atomic charges:
              1
     1  H    0.213479
     2  C   -0.589425
     3  H    0.201354
     4  H    0.183684
     5  C    0.744121
     6  O   -0.608889
     7  N   -0.776068
     8  H    0.393614
     9  C   -0.069942
    10  H    0.223624
    11  C   -0.486712
    12  H    0.184943
    13  H    0.175254
    14  H    0.185281
    15  C    0.775395
    16  O   -0.631891
    17  N   -0.788620
    18  H    0.392803
    19  C   -0.277737
    20  H    0.204883
    21  H    0.179870
    22  H    0.170976
 Sum of Mulliken atomic charges =   0.00000

 Dipole moment (field-independent basis, Debye):
    X=              0.5548    Y=              0.9537    Z=             -0.4035  Tot=              1.1748
 Quadrupole moment (field-independent basis, Debye-Ang):
   XX=            -53.8188   YY=            -59.3770   ZZ=            -64.7945
   XY=             -4.7798   XZ=            -11.8098   YZ=             -2.4393

 Normal termination of Gaussian 09 at Fri Feb 10 16:01:30 2017.
