 Gaussian 09, Revision A.02,
 Gaussian 09:  EM64L-G09RevA.02 11-Jun-2009

 -------------------------------------------
 # HF/6-31G* Opt=(ModRedundant) geom=nocrowd
 -------------------------------------------

 ------------------
 Phi Psi fixed scan
 ------------------
 Symbolic Z-matrix:
 Charge =  0 Multiplicity = 1

 SCF Done:  E(RHF) =  -492.831683459     A.U. after   15 cycles
 SCF Done:  E(RHF) =  -492.842591408     A.U. after   14 cycles
 SCF Done:  E(RHF) =  -492.845263154     A.U. after   14 cycles
 SCF Done:  E(RHF) =  -492.845690210     A.U. after   13 cycles
 SCF Done:  E(RHF) =  -492.845904519     A.U. after   16 cycles
 SCF Done:  E(RHF) =  -492.846272801     A.U. after   13 cycles
 SCF Done:  E(RHF) =  -492.846556080     A.U. after   14 cycles
 SCF Done:  E(RHF) =  -492.846585077     A.U. after   13 cycles
 SCF Done:  E(RHF) =  -492.846691578     A.U. after   12 cycles
 SCF Done:  E(RHF) =  -492.846739900     A.U. after   12 cycles
 SCF Done:  E(RHF) =  -492.847297223     A.U. after   14 cycles
 SCF Done:  E(RHF) =  -492.847317965     A.U. after   12 cycles
 SCF Done:  E(RHF) =  -492.847322166     A.U. after   11 cycles
 SCF Done:  E(RHF) =  -492.847241061     A.U. after   12 cycles
 SCF Done:  E(RHF) =  -492.847352294     A.U. after   12 cycles
 SCF Done:  E(RHF) =  -492.847359783     A.U. after   10 cycles
 SCF Done:  E(RHF) =  -492.847361822     A.U. after   10 cycles
 SCF Done:  E(RHF) =  -492.847363333     A.U. after    9 cycles
 SCF Done:  E(RHF) =  -492.847364054     A.U. after   10 cycles
 SCF Done:  E(RHF) =  -492.847364096     A.U. after    8 cycles
 Optimization completed.
    -- Stationary point found.

                         Standard orientation:
 ---------------------------------------------------------------------
 Center     Atomic      Atomic             Coordinates (Angstroms)
 Number     Number       Type             X           Y           Z
 ---------------------------------------------------------------------
      1          1           0        3.899724   -1.188457   -0.615139
      2          6           0        2.926623   -0.968918   -1.028922
      3          1           0        2.433439   -1.904887   -1.274256
      4          1           0        3.038242   -0.393874   -1.941769
      5          6           0        2.107318   -0.231147    0.008130
      6          8           0        2.388159   -0.235594    1.169424
      7          7           0        1.039166    0.460725   -0.498805
      8          1           0        0.809355    0.286923   -1.452860
      9          6           0       -0.044881    0.935100    0.344830
     10          1           0        0.358274    1.004783    1.341994
     11          6           0       -0.515254    2.313396   -0.114052
     12          1           0       -0.801860    2.323855   -1.162656
     13          1           0       -1.359954    2.656580    0.474838
     14          1           0        0.293415    3.023801    0.003818
     15          6           0       -1.130069   -0.148320    0.428143
     16          8           0       -1.062256   -1.028670    1.237923
     17          7           0       -2.109886   -0.105059   -0.509634
     18          1           0       -2.250353    0.735453   -1.018237
     19          6           0       -3.196100   -1.063556   -0.486322
     20          1           0       -2.796259   -2.065390   -0.435076
     21          1           0       -3.850657   -0.914573    0.365768
     22          1           0       -3.771375   -0.959094   -1.396968
 ---------------------------------------------------------------------

 The electronic state is 1-A.
 Alpha  occ. eigenvalues --  -20.52413 -20.52234 -15.58988 -15.58790 -11.34724
 Alpha  occ. eigenvalues --  -11.34382 -11.27847 -11.26077 -11.23814 -11.23144
 Alpha  occ. eigenvalues --   -1.39631  -1.38846  -1.24403  -1.23065  -1.05890
 Alpha  occ. eigenvalues --   -0.99388  -0.95903  -0.88841  -0.79536  -0.79351
 Alpha  occ. eigenvalues --   -0.72899  -0.67232  -0.66034  -0.64660  -0.62825
 Alpha  occ. eigenvalues --   -0.61677  -0.59337  -0.58756  -0.57806  -0.56705
 Alpha  occ. eigenvalues --   -0.55866  -0.54834  -0.52257  -0.51594  -0.51092
 Alpha  occ. eigenvalues --   -0.43959  -0.41591  -0.39478  -0.37866
 Alpha virt. eigenvalues --    0.18511   0.20031   0.21954   0.23494   0.25583
 Alpha virt. eigenvalues --    0.27656   0.28285   0.29737   0.30313   0.31302
 Alpha virt. eigenvalues --    0.32968   0.33197   0.33552   0.33903   0.37462

 Mulliken atomic charges:
              1
     1  H    0.216936
     2  C   -0.592885
     3  H    0.199026
     4  H    0.176366
     5  C    0.752396
     6  O   -0.578568
     7  N   -0.793432
     8  H    0.374543
     9  C   -0.057349
    10  H    0.263398
    11  C   -0.501719
    12  H    0.145422
    13  H    0.178761
    14  H    0.201208
    15  C    0.746551
    16  O   -0.592059
    17  N   -0.802228
    18  H    0.388148
    19  C   -0.274218
    20  H    0.204428
    21  H    0.179618
    22  H    0.165656
 Sum of Mulliken atomic charges =   0.00000

 Dipole moment (field-independent basis, Debye):
    X=             -2.6098    Y=              2.3660    Z=             -5.7543  Tot=              6.7469
 Quadrupole moment (field-independent basis, Debye-Ang):
   XX=            -56.7291   YY=            -59.3529   ZZ=            -63.9059
   XY=             -3.1614   XZ=             -3.7246   YZ=              4.6185

 Normal termination of Gaussian 09 at Fri Feb 10 16:29:17 2017.
