 Gaussian 09, Revision A.02,
 Gaussian 09:  EM64L-G09RevA.02 11-Jun-2009

 -------------------------------------------
 # HF/6-31G* Opt=(ModRedundant) geom=nocrowd
 -------------------------------------------

 ------------------
 Phi Psi fixed scan
 ------------------
 Symbolic Z-matrix:
 Charge =  0 Multiplicity = 1

 SCF Done:  E(RHF) =  -492.842353821     A.U. after   15 cycles
 SCF Done:  E(RHF) =  -492.850224920     A.U. after   14 cycles
 SCF Done:  E(RHF) =  -492.851239342     A.U. after   13 cycles
 SCF Done:  E(RHF) =  -492.851537357     A.U. after   13 cycles
 SCF Done:  E(RHF) =  -492.851791783     A.U. after   14 cycles
 SCF Done:  E(RHF) =  -492.852240952     A.U. after   13 cycles
 SCF Done:  E(RHF) =  -492.852455643     A.U. after   13 cycles
 SCF Done:  E(RHF) =  -492.852596961     A.U. after   12 cycles
 SCF Done:  E(RHF) =  -492.852652057     A.U. after   11 cycles
 SCF Done:  E(RHF) =  -492.852927868     A.U. after   14 cycles
 SCF Done:  E(RHF) =  -492.853098108     A.U. after   12 cycles
 SCF Done:  E(RHF) =  -492.853231932     A.U. after   13 cycles
 SCF Done:  E(RHF) =  -492.853241198     A.U. after   11 cycles
 SCF Done:  E(RHF) =  -492.853245987     A.U. after   10 cycles
 SCF Done:  E(RHF) =  -492.853247921     A.U. after   10 cycles
 SCF Done:  E(RHF) =  -492.853248170     A.U. after    9 cycles
 SCF Done:  E(RHF) =  -492.853248207     A.U. after    7 cycles
 Optimization completed.
    -- Stationary point found.

                         Standard orientation:
 ---------------------------------------------------------------------
 Center     Atomic      Atomic             Coordinates (Angstroms)
 Number     Number       Type             X           Y           Z
 ---------------------------------------------------------------------
      1          1           0        3.724639   -1.582789   -0.133268
      2          6           0        3.225198   -0.756056   -0.616549
      3          1           0        2.975548   -1.025421   -1.636900
      4          1           0        3.905896    0.089736   -0.645700
      5          6           0        1.998838   -0.385133    0.189624
      6          8           0        1.868061   -0.686438    1.339363
      7          7           0        1.048549    0.321436   -0.493302
      8          1           0        1.318369    0.693644   -1.376978
      9          6           0       -0.034255    1.001541    0.203157
     10          1           0        0.295722    1.239813    1.203024
     11          6           0       -0.419633    2.283389   -0.535136
     12          1           0       -0.741382    2.074431   -1.550612
     13          1           0       -1.234860    2.774662   -0.018799
     14          1           0        0.423240    2.965916   -0.569298
     15          6           0       -1.272312    0.123304    0.392311
     16          8           0       -1.915585    0.189636    1.401270
     17          7           0       -1.665641   -0.590313   -0.691635
     18          1           0       -0.959849   -0.805910   -1.358213
     19          6           0       -2.789916   -1.498819   -0.599367
     20          1           0       -3.635126   -0.980330   -0.172481
     21          1           0       -3.049237   -1.833845   -1.595461
     22          1           0       -2.570643   -2.362705    0.019948
 ---------------------------------------------------------------------

 The electronic state is 1-A.
 Alpha  occ. eigenvalues --  -20.53401 -20.51897 -15.59651 -15.57840 -11.35696
 Alpha  occ. eigenvalues --  -11.33641 -11.27844 -11.25232 -11.24186 -11.23730
 Alpha  occ. eigenvalues --   -1.40319  -1.38652  -1.25121  -1.22231  -1.06151
 Alpha  occ. eigenvalues --   -1.00113  -0.95476  -0.88317  -0.80631  -0.78000
 Alpha  occ. eigenvalues --   -0.71879  -0.68482  -0.67704  -0.63104  -0.62705
 Alpha  occ. eigenvalues --   -0.62216  -0.59390  -0.59061  -0.58373  -0.56186
 Alpha  occ. eigenvalues --   -0.55173  -0.54595  -0.53979  -0.51815  -0.49893
 Alpha  occ. eigenvalues --   -0.43671  -0.42656  -0.38856  -0.38652
 Alpha virt. eigenvalues --    0.19140   0.19837   0.20376   0.24674   0.25724
 Alpha virt. eigenvalues --    0.27581   0.28526   0.29539   0.30271   0.31137
 Alpha virt. eigenvalues --    0.31805   0.32850   0.33819   0.34431   0.37573

 Mulliken atomic charges:
              1
     1  H    0.220661
     2  C   -0.591182
     3  H    0.177024
     4  H    0.197634
     5  C    0.737661
     6  O   -0.576030
     7  N   -0.824895
     8  H    0.381407
     9  C   -0.042644
    10  H    0.246380
    11  C   -0.514043
    12  H    0.169331
    13  H    0.208712
    14  H    0.177387
    15  C    0.767387
    16  O   -0.603860
    17  N   -0.781374
    18  H    0.383774
    19  C   -0.279464
    20  H    0.204396
    21  H    0.164610
    22  H    0.177127
 Sum of Mulliken atomic charges =   0.00000

 Dipole moment (field-independent basis, Debye):
    X=              2.0407    Y=              0.8147    Z=             -6.3981  Tot=              6.7649
 Quadrupole moment (field-independent basis, Debye-Ang):
   XX=            -58.8680   YY=            -56.1392   ZZ=            -66.3374
   XY=              4.2852   XZ=             -0.8635   YZ=              2.6412

 Normal termination of Gaussian 09 at Fri Feb 10 16:36:11 2017.
