 Gaussian 09, Revision A.02,
 Gaussian 09:  EM64L-G09RevA.02 11-Jun-2009

 -------------------------------------------
 # HF/6-31G* Opt=(ModRedundant) geom=nocrowd
 -------------------------------------------

 ------------------
 Phi Psi fixed scan
 ------------------
 Symbolic Z-matrix:
 Charge =  0 Multiplicity = 1

 SCF Done:  E(RHF) =  -492.844745614     A.U. after   15 cycles
 SCF Done:  E(RHF) =  -492.852132049     A.U. after   13 cycles
 SCF Done:  E(RHF) =  -492.853568458     A.U. after   13 cycles
 SCF Done:  E(RHF) =  -492.854372642     A.U. after   14 cycles
 SCF Done:  E(RHF) =  -492.855609786     A.U. after   13 cycles
 SCF Done:  E(RHF) =  -492.855913542     A.U. after   13 cycles
 SCF Done:  E(RHF) =  -492.856250104     A.U. after   13 cycles
 SCF Done:  E(RHF) =  -492.856308625     A.U. after   12 cycles
 SCF Done:  E(RHF) =  -492.856349251     A.U. after   11 cycles
 SCF Done:  E(RHF) =  -492.856411689     A.U. after   12 cycles
 SCF Done:  E(RHF) =  -492.856661488     A.U. after   12 cycles
 SCF Done:  E(RHF) =  -492.856730892     A.U. after   11 cycles
 SCF Done:  E(RHF) =  -492.856743449     A.U. after   11 cycles
 SCF Done:  E(RHF) =  -492.856787409     A.U. after   11 cycles
 SCF Done:  E(RHF) =  -492.856809316     A.U. after   11 cycles
 SCF Done:  E(RHF) =  -492.856816733     A.U. after   10 cycles
 SCF Done:  E(RHF) =  -492.856823314     A.U. after   11 cycles
 SCF Done:  E(RHF) =  -492.856825985     A.U. after   11 cycles
 SCF Done:  E(RHF) =  -492.856826842     A.U. after    9 cycles
 SCF Done:  E(RHF) =  -492.856826940     A.U. after    8 cycles
 Optimization completed.
    -- Stationary point found.

                         Standard orientation:
 ---------------------------------------------------------------------
 Center     Atomic      Atomic             Coordinates (Angstroms)
 Number     Number       Type             X           Y           Z
 ---------------------------------------------------------------------
      1          1           0        4.006290   -1.155827    0.098787
      2          6           0        3.199807   -0.840654   -0.546777
      3          1           0        2.793258   -1.710074   -1.054677
      4          1           0        3.575248   -0.154096   -1.297399
      5          6           0        2.112603   -0.207528    0.290694
      6          8           0        2.058047   -0.335722    1.480951
      7          7           0        1.208845    0.539457   -0.415608
      8          1           0        1.166481    0.338068   -1.391240
      9          6           0       -0.062226    0.878772    0.175025
     10          1           0        0.082377    0.901593    1.245741
     11          6           0       -0.514353    2.259734   -0.314850
     12          1           0       -0.671260    2.257491   -1.389167
     13          1           0       -1.439325    2.575518    0.153017
     14          1           0        0.252133    2.989003   -0.084793
     15          6           0       -1.094543   -0.208802   -0.155832
     16          8           0       -0.822676   -1.141224   -0.862711
     17          7           0       -2.336065   -0.011645    0.341237
     18          1           0       -2.453301    0.664878    1.060066
     19          6           0       -3.370988   -1.013827    0.186755
     20          1           0       -3.429613   -1.315245   -0.848289
     21          1           0       -3.178282   -1.894249    0.790439
     22          1           0       -4.318237   -0.582348    0.482103
 ---------------------------------------------------------------------

 The electronic state is 1-A.
 Alpha  occ. eigenvalues --  -20.53029 -20.52224 -15.58994 -15.57633 -11.34718
 Alpha  occ. eigenvalues --  -11.34373 -11.27795 -11.26053 -11.23267 -11.22535
 Alpha  occ. eigenvalues --   -1.40017  -1.38745  -1.23776  -1.23431  -1.05571
 Alpha  occ. eigenvalues --   -0.99000  -0.95896  -0.88035  -0.79676  -0.78384
 Alpha  occ. eigenvalues --   -0.73184  -0.67160  -0.66152  -0.63532  -0.63048
 Alpha  occ. eigenvalues --   -0.61944  -0.59686  -0.58412  -0.57319  -0.56398
 Alpha  occ. eigenvalues --   -0.55704  -0.54098  -0.53541  -0.51230  -0.50116
 Alpha  occ. eigenvalues --   -0.42759  -0.41729  -0.39629  -0.38944
 Alpha virt. eigenvalues --    0.19252   0.20616   0.21363   0.23567   0.26366
 Alpha virt. eigenvalues --    0.27461   0.29451   0.30675   0.31244   0.31676
 Alpha virt. eigenvalues --    0.32016   0.32793   0.33713   0.34278   0.37669

 Mulliken atomic charges:
              1
     1  H    0.211480
     2  C   -0.595164
     3  H    0.206661
     4  H    0.182306
     5  C    0.746342
     6  O   -0.600694
     7  N   -0.759973
     8  H    0.385275
     9  C   -0.093737
    10  H    0.242939
    11  C   -0.470535
    12  H    0.170354
    13  H    0.161484
    14  H    0.192394
    15  C    0.766979
    16  O   -0.619058
    17  N   -0.789448
    18  H    0.383317
    19  C   -0.275175
    20  H    0.204718
    21  H    0.180147
    22  H    0.169390
 Sum of Mulliken atomic charges =   0.00000

 Dipole moment (field-independent basis, Debye):
    X=             -2.3610    Y=              2.3188    Z=             -1.1168  Tot=              3.4926
 Quadrupole moment (field-independent basis, Debye-Ang):
   XX=            -51.6177   YY=            -61.4522   ZZ=            -63.5838
   XY=             -1.8893   XZ=            -11.3608   YZ=              0.2749

 Normal termination of Gaussian 09 at Fri Feb 10 16:09:19 2017.
