 Gaussian 09, Revision A.02,
 Gaussian 09:  EM64L-G09RevA.02 11-Jun-2009

 -------------------------------------------
 # HF/6-31G* Opt=(ModRedundant) geom=nocrowd
 -------------------------------------------

 ------------------
 Phi Psi fixed scan
 ------------------
 Symbolic Z-matrix:
 Charge =  0 Multiplicity = 1

 SCF Done:  E(RHF) =  -492.829877777     A.U. after   15 cycles
 SCF Done:  E(RHF) =  -492.841887176     A.U. after   14 cycles
 SCF Done:  E(RHF) =  -492.845576129     A.U. after   14 cycles
 SCF Done:  E(RHF) =  -492.846127462     A.U. after   13 cycles
 SCF Done:  E(RHF) =  -492.846934442     A.U. after   15 cycles
 SCF Done:  E(RHF) =  -492.847563648     A.U. after   13 cycles
 SCF Done:  E(RHF) =  -492.847820939     A.U. after   13 cycles
 SCF Done:  E(RHF) =  -492.848115264     A.U. after   13 cycles
 SCF Done:  E(RHF) =  -492.848152172     A.U. after   11 cycles
 SCF Done:  E(RHF) =  -492.848186058     A.U. after   11 cycles
 SCF Done:  E(RHF) =  -492.848413669     A.U. after   15 cycles
 SCF Done:  E(RHF) =  -492.848535755     A.U. after   16 cycles
 SCF Done:  E(RHF) =  -492.848593535     A.U. after   12 cycles
 SCF Done:  E(RHF) =  -492.848584341     A.U. after   12 cycles
 SCF Done:  E(RHF) =  -492.848655596     A.U. after   11 cycles
 SCF Done:  E(RHF) =  -492.848652186     A.U. after   11 cycles
 SCF Done:  E(RHF) =  -492.848667656     A.U. after   11 cycles
 SCF Done:  E(RHF) =  -492.848672432     A.U. after    9 cycles
 SCF Done:  E(RHF) =  -492.848676647     A.U. after   10 cycles
 SCF Done:  E(RHF) =  -492.848676767     A.U. after    8 cycles
 Optimization completed.
    -- Stationary point found.

                         Standard orientation:
 ---------------------------------------------------------------------
 Center     Atomic      Atomic             Coordinates (Angstroms)
 Number     Number       Type             X           Y           Z
 ---------------------------------------------------------------------
      1          1           0        3.971289   -1.106623   -0.475813
      2          6           0        3.011947   -0.906515   -0.929719
      3          1           0        2.536604   -1.851548   -1.174918
      4          1           0        3.150492   -0.345656   -1.847808
      5          6           0        2.142205   -0.164505    0.059967
      6          8           0        2.376049   -0.143017    1.231741
      7          7           0        1.085622    0.508938   -0.499897
      8          1           0        0.892006    0.293703   -1.453980
      9          6           0       -0.061545    0.890334    0.300793
     10          1           0        0.287178    0.922471    1.322173
     11          6           0       -0.553455    2.278252   -0.104834
     12          1           0       -0.873704    2.309841   -1.142716
     13          1           0       -1.376536    2.609100    0.521610
     14          1           0        0.256595    2.986758    0.011192
     15          6           0       -1.094879   -0.249729    0.258187
     16          8           0       -0.782266   -1.357432    0.598806
     17          7           0       -2.320346    0.026725   -0.238136
     18          1           0       -2.581561    0.968632   -0.403947
     19          6           0       -3.358992   -0.982943   -0.255842
     20          1           0       -2.995337   -1.877277   -0.740741
     21          1           0       -3.680667   -1.245732    0.745571
     22          1           0       -4.205239   -0.599082   -0.810091
 ---------------------------------------------------------------------

 The electronic state is 1-A.
 Alpha  occ. eigenvalues --  -20.52211 -20.51927 -15.59189 -15.58247 -11.34513
 Alpha  occ. eigenvalues --  -11.34336 -11.27851 -11.26168 -11.23626 -11.22687
 Alpha  occ. eigenvalues --   -1.39572  -1.38527  -1.23945  -1.23314  -1.05659
 Alpha  occ. eigenvalues --   -0.99097  -0.95903  -0.88730  -0.79554  -0.79010
 Alpha  occ. eigenvalues --   -0.72990  -0.66977  -0.65697  -0.64741  -0.62708
 Alpha  occ. eigenvalues --   -0.61553  -0.59104  -0.58786  -0.57392  -0.56343
 Alpha  occ. eigenvalues --   -0.55812  -0.54842  -0.53059  -0.51260  -0.50174
 Alpha  occ. eigenvalues --   -0.43331  -0.41310  -0.39371  -0.38160
 Alpha virt. eigenvalues --    0.18396   0.20622   0.22461   0.23611   0.25667
 Alpha virt. eigenvalues --    0.27779   0.28465   0.29682   0.30603   0.31418
 Alpha virt. eigenvalues --    0.32222   0.33369   0.33701   0.34477   0.37965

 Mulliken atomic charges:
              1
     1  H    0.214108
     2  C   -0.595337
     3  H    0.205246
     4  H    0.175090
     5  C    0.760744
     6  O   -0.586485
     7  N   -0.778271
     8  H    0.373184
     9  C   -0.063967
    10  H    0.259491
    11  C   -0.507367
    12  H    0.158634
    13  H    0.166643
    14  H    0.204297
    15  C    0.748290
    16  O   -0.603565
    17  N   -0.806081
    18  H    0.395414
    19  C   -0.271473
    20  H    0.201281
    21  H    0.183790
    22  H    0.166333
 Sum of Mulliken atomic charges =   0.00000

 Dipole moment (field-independent basis, Debye):
    X=             -3.3125    Y=              2.7593    Z=             -4.3202  Tot=              6.1034
 Quadrupole moment (field-independent basis, Debye-Ang):
   XX=            -53.9189   YY=            -61.5453   ZZ=            -62.2278
   XY=             -3.7822   XZ=             -6.5987   YZ=              3.5796

 Normal termination of Gaussian 09 at Fri Feb 10 16:23:23 2017.
