 Gaussian 09, Revision A.02,
 Gaussian 09:  EM64L-G09RevA.02 11-Jun-2009

 -------------------------------------------
 # HF/6-31G* Opt=(ModRedundant) geom=nocrowd
 -------------------------------------------

 ------------------
 Phi Psi fixed scan
 ------------------
 Symbolic Z-matrix:
 Charge =  0 Multiplicity = 1

 SCF Done:  E(RHF) =  -492.848170338     A.U. after   15 cycles
 SCF Done:  E(RHF) =  -492.855092411     A.U. after   14 cycles
 SCF Done:  E(RHF) =  -492.856496609     A.U. after   13 cycles
 SCF Done:  E(RHF) =  -492.856775230     A.U. after   13 cycles
 SCF Done:  E(RHF) =  -492.857118788     A.U. after   13 cycles
 SCF Done:  E(RHF) =  -492.857278583     A.U. after   12 cycles
 SCF Done:  E(RHF) =  -492.857347832     A.U. after   12 cycles
 SCF Done:  E(RHF) =  -492.857460640     A.U. after   12 cycles
 SCF Done:  E(RHF) =  -492.857552573     A.U. after   12 cycles
 SCF Done:  E(RHF) =  -492.857658681     A.U. after   12 cycles
 SCF Done:  E(RHF) =  -492.858238930     A.U. after   11 cycles
 SCF Done:  E(RHF) =  -492.858254887     A.U. after   11 cycles
 SCF Done:  E(RHF) =  -492.858261677     A.U. after   10 cycles
 SCF Done:  E(RHF) =  -492.858262389     A.U. after    9 cycles
 SCF Done:  E(RHF) =  -492.858262542     A.U. after    8 cycles
 SCF Done:  E(RHF) =  -492.858263136     A.U. after   10 cycles
 SCF Done:  E(RHF) =  -492.858263204     A.U. after    8 cycles
 SCF Done:  E(RHF) =  -492.858263250     A.U. after    7 cycles
 SCF Done:  E(RHF) =  -492.858263275     A.U. after    7 cycles
 SCF Done:  E(RHF) =  -492.858263292     A.U. after    7 cycles
 Optimization completed.
    -- Stationary point found.

                         Standard orientation:
 ---------------------------------------------------------------------
 Center     Atomic      Atomic             Coordinates (Angstroms)
 Number     Number       Type             X           Y           Z
 ---------------------------------------------------------------------
      1          1           0        3.568607   -1.572733   -0.418392
      2          6           0        3.212861   -0.567198   -0.590611
      3          1           0        3.116021   -0.391132   -1.655694
      4          1           0        3.946956    0.127631   -0.194932
      5          6           0        1.909082   -0.373955    0.151673
      6          8           0        1.647638   -0.989475    1.153560
      7          7           0        1.061078    0.535241   -0.375405
      8          1           0        1.318718    0.986071   -1.223600
      9          6           0       -0.120300    1.039114    0.307929
     10          1           0        0.070453    0.950169    1.371306
     11          6           0       -0.334723    2.507456   -0.044313
     12          1           0       -0.504756    2.632040   -1.109645
     13          1           0       -1.201171    2.892324    0.471532
     14          1           0        0.536909    3.086814    0.239998
     15          6           0       -1.395397    0.222521    0.047014
     16          8           0       -2.473447    0.753415    0.069634
     17          7           0       -1.229659   -1.093825   -0.197773
     18          1           0       -0.366402   -1.500920    0.085274
     19          6           0       -2.382871   -1.966279   -0.275465
     20          1           0       -3.089444   -1.571769   -0.990632
     21          1           0       -2.055125   -2.942897   -0.606679
     22          1           0       -2.886137   -2.066974    0.680797
 ---------------------------------------------------------------------

 The electronic state is 1-A.
 Alpha  occ. eigenvalues --  -20.53648 -20.51970 -15.59891 -15.57321 -11.36258
 Alpha  occ. eigenvalues --  -11.33843 -11.28294 -11.24879 -11.24449 -11.22528
 Alpha  occ. eigenvalues --   -1.40563  -1.38713  -1.25343  -1.22078  -1.06049
 Alpha  occ. eigenvalues --   -1.00066  -0.95611  -0.87684  -0.81181  -0.77880
 Alpha  occ. eigenvalues --   -0.72761  -0.68839  -0.67438  -0.63800  -0.62403
 Alpha  occ. eigenvalues --   -0.62016  -0.59578  -0.59162  -0.58381  -0.54899
 Alpha  occ. eigenvalues --   -0.54572  -0.54163  -0.53316  -0.52448  -0.49986
 Alpha  occ. eigenvalues --   -0.44272  -0.43197  -0.39450  -0.37561
 Alpha virt. eigenvalues --    0.18333   0.20305   0.21646   0.25326   0.25861
 Alpha virt. eigenvalues --    0.27662   0.29449   0.29820   0.30481   0.31200
 Alpha virt. eigenvalues --    0.32849   0.33470   0.33792   0.34864   0.38001

 Mulliken atomic charges:
              1
     1  H    0.215767
     2  C   -0.581050
     3  H    0.176663
     4  H    0.206107
     5  C    0.740521
     6  O   -0.622453
     7  N   -0.798348
     8  H    0.389190
     9  C   -0.059139
    10  H    0.237982
    11  C   -0.494539
    12  H    0.165471
    13  H    0.218430
    14  H    0.169072
    15  C    0.771172
    16  O   -0.618003
    17  N   -0.796367
    18  H    0.415635
    19  C   -0.276512
    20  H    0.197734
    21  H    0.167679
    22  H    0.174989
 Sum of Mulliken atomic charges =   0.00000

 Dipole moment (field-independent basis, Debye):
    X=              3.4515    Y=              0.2158    Z=             -2.6034  Tot=              4.3286
 Quadrupole moment (field-independent basis, Debye-Ang):
   XX=            -63.9293   YY=            -57.2444   ZZ=            -61.6497
   XY=              8.2215   XZ=             -5.5264   YZ=              2.1878

 Normal termination of Gaussian 09 at Fri Feb 10 15:38:47 2017.
