 Gaussian 09, Revision A.02,
 Gaussian 09:  EM64L-G09RevA.02 11-Jun-2009

 -------------------------------------------
 # HF/6-31G* Opt=(ModRedundant) geom=nocrowd
 -------------------------------------------

 ------------------
 Phi Psi fixed scan
 ------------------
 Symbolic Z-matrix:
 Charge =  0 Multiplicity = 1

 SCF Done:  E(RHF) =  -492.844799810     A.U. after   15 cycles
 SCF Done:  E(RHF) =  -492.852674900     A.U. after   14 cycles
 SCF Done:  E(RHF) =  -492.853922278     A.U. after   13 cycles
 SCF Done:  E(RHF) =  -492.854384941     A.U. after   13 cycles
 SCF Done:  E(RHF) =  -492.854813260     A.U. after   13 cycles
 SCF Done:  E(RHF) =  -492.854672170     A.U. after   13 cycles
 SCF Done:  E(RHF) =  -492.855057989     A.U. after   13 cycles
 SCF Done:  E(RHF) =  -492.855079576     A.U. after   13 cycles
 SCF Done:  E(RHF) =  -492.855147474     A.U. after   11 cycles
 SCF Done:  E(RHF) =  -492.855194062     A.U. after   11 cycles
 SCF Done:  E(RHF) =  -492.855534835     A.U. after   12 cycles
 SCF Done:  E(RHF) =  -492.855608254     A.U. after   12 cycles
 SCF Done:  E(RHF) =  -492.855622857     A.U. after   11 cycles
 SCF Done:  E(RHF) =  -492.855635603     A.U. after   11 cycles
 SCF Done:  E(RHF) =  -492.855643989     A.U. after   10 cycles
 SCF Done:  E(RHF) =  -492.855647210     A.U. after   10 cycles
 SCF Done:  E(RHF) =  -492.855649421     A.U. after   10 cycles
 SCF Done:  E(RHF) =  -492.855652381     A.U. after   11 cycles
 SCF Done:  E(RHF) =  -492.855653420     A.U. after    9 cycles
 SCF Done:  E(RHF) =  -492.855653529     A.U. after    8 cycles
 Optimization completed.
    -- Stationary point found.

                         Standard orientation:
 ---------------------------------------------------------------------
 Center     Atomic      Atomic             Coordinates (Angstroms)
 Number     Number       Type             X           Y           Z
 ---------------------------------------------------------------------
      1          1           0        3.688535   -1.593646   -0.043203
      2          6           0        3.224394   -0.749803   -0.532237
      3          1           0        3.016670   -0.995724   -1.567785
      4          1           0        3.919657    0.084264   -0.514524
      5          6           0        1.971285   -0.370517    0.227181
      6          8           0        1.796893   -0.669306    1.372482
      7          7           0        1.049758    0.340009   -0.488393
      8          1           0        1.341054    0.697216   -1.371198
      9          6           0       -0.050899    1.026976    0.170160
     10          1           0        0.250423    1.276165    1.176673
     11          6           0       -0.409247    2.303941   -0.591097
     12          1           0       -0.711206    2.080955   -1.610388
     13          1           0       -1.230723    2.805397   -0.096947
     14          1           0        0.440238    2.978456   -0.619297
     15          6           0       -1.309114    0.172581    0.328109
     16          8           0       -2.101499    0.435552    1.190534
     17          7           0       -1.523211   -0.770515   -0.614395
     18          1           0       -0.734457   -1.068109   -1.139955
     19          6           0       -2.655761   -1.666859   -0.517717
     20          1           0       -3.554470   -1.094101   -0.344367
     21          1           0       -2.755253   -2.204594   -1.451831
     22          1           0       -2.543389   -2.380611    0.291818
 ---------------------------------------------------------------------

 The electronic state is 1-A.
 Alpha  occ. eigenvalues --  -20.53538 -20.51576 -15.59739 -15.57831 -11.35854
 Alpha  occ. eigenvalues --  -11.33611 -11.27864 -11.25214 -11.24321 -11.23545
 Alpha  occ. eigenvalues --   -1.40454  -1.38453  -1.25250  -1.22225  -1.06128
 Alpha  occ. eigenvalues --   -1.00171  -0.95619  -0.88174  -0.80732  -0.78114
 Alpha  occ. eigenvalues --   -0.72132  -0.68613  -0.67772  -0.63011  -0.62549
 Alpha  occ. eigenvalues --   -0.62309  -0.59453  -0.59241  -0.58402  -0.55992
 Alpha  occ. eigenvalues --   -0.55029  -0.54701  -0.54013  -0.51970  -0.49521
 Alpha  occ. eigenvalues --   -0.43728  -0.42818  -0.38905  -0.38461
 Alpha virt. eigenvalues --    0.19172   0.20066   0.20321   0.24910   0.25487
 Alpha virt. eigenvalues --    0.27710   0.28703   0.29518   0.30112   0.31399
 Alpha virt. eigenvalues --    0.31840   0.32709   0.34140   0.34416   0.37868

 Mulliken atomic charges:
              1
     1  H    0.220239
     2  C   -0.590343
     3  H    0.176140
     4  H    0.199785
     5  C    0.735063
     6  O   -0.579129
     7  N   -0.830440
     8  H    0.383841
     9  C   -0.026299
    10  H    0.243900
    11  C   -0.517954
    12  H    0.168577
    13  H    0.215829
    14  H    0.176164
    15  C    0.765546
    16  O   -0.616272
    17  N   -0.786233
    18  H    0.391743
    19  C   -0.277513
    20  H    0.203666
    21  H    0.164276
    22  H    0.179414
 Sum of Mulliken atomic charges =   0.00000

 Dipole moment (field-independent basis, Debye):
    X=              2.6380    Y=              0.2218    Z=             -5.9606  Tot=              6.5220
 Quadrupole moment (field-independent basis, Debye-Ang):
   XX=            -60.2705   YY=            -55.7233   ZZ=            -65.8698
   XY=              5.2514   XZ=             -0.9728   YZ=              1.8257

 Normal termination of Gaussian 09 at Fri Feb 10 16:38:39 2017.
