 Gaussian 09, Revision A.02,
 Gaussian 09:  EM64L-G09RevA.02 11-Jun-2009

 -------------------------------------------
 # HF/6-31G* Opt=(ModRedundant) geom=nocrowd
 -------------------------------------------

 ------------------
 Phi Psi fixed scan
 ------------------
 Symbolic Z-matrix:
 Charge =  0 Multiplicity = 1

 SCF Done:  E(RHF) =  -492.846815752     A.U. after   15 cycles
 SCF Done:  E(RHF) =  -492.854425318     A.U. after   14 cycles
 SCF Done:  E(RHF) =  -492.855542156     A.U. after   13 cycles
 SCF Done:  E(RHF) =  -492.855892367     A.U. after   13 cycles
 SCF Done:  E(RHF) =  -492.855979022     A.U. after   13 cycles
 SCF Done:  E(RHF) =  -492.856197784     A.U. after   12 cycles
 SCF Done:  E(RHF) =  -492.856289196     A.U. after   10 cycles
 SCF Done:  E(RHF) =  -492.856326781     A.U. after   12 cycles
 SCF Done:  E(RHF) =  -492.856363409     A.U. after   12 cycles
 SCF Done:  E(RHF) =  -492.856410416     A.U. after   11 cycles
 SCF Done:  E(RHF) =  -492.856697665     A.U. after   12 cycles
 SCF Done:  E(RHF) =  -492.856721329     A.U. after   10 cycles
 SCF Done:  E(RHF) =  -492.856750441     A.U. after   11 cycles
 SCF Done:  E(RHF) =  -492.856762020     A.U. after   11 cycles
 SCF Done:  E(RHF) =  -492.856774855     A.U. after   11 cycles
 SCF Done:  E(RHF) =  -492.856786453     A.U. after   11 cycles
 SCF Done:  E(RHF) =  -492.856798001     A.U. after   12 cycles
 SCF Done:  E(RHF) =  -492.856799775     A.U. after   10 cycles
 SCF Done:  E(RHF) =  -492.856800547     A.U. after   10 cycles
 SCF Done:  E(RHF) =  -492.856800596     A.U. after    8 cycles
 Optimization completed.
    -- Stationary point found.

                         Standard orientation:
 ---------------------------------------------------------------------
 Center     Atomic      Atomic             Coordinates (Angstroms)
 Number     Number       Type             X           Y           Z
 ---------------------------------------------------------------------
      1          1           0        3.643612   -1.609066   -0.059845
      2          6           0        3.216373   -0.723217   -0.506645
      3          1           0        3.039694   -0.894836   -1.562707
      4          1           0        3.930459    0.089024   -0.409630
      5          6           0        1.949297   -0.360037    0.237523
      6          8           0        1.748144   -0.699492    1.367988
      7          7           0        1.052582    0.386705   -0.468054
      8          1           0        1.342502    0.742768   -1.351191
      9          6           0       -0.073343    1.042043    0.177351
     10          1           0        0.193040    1.238679    1.205770
     11          6           0       -0.390009    2.361305   -0.528079
     12          1           0       -0.651172    2.194264   -1.569738
     13          1           0       -1.227349    2.842377   -0.042685
     14          1           0        0.466722    3.025677   -0.488286
     15          6           0       -1.346321    0.196317    0.251422
     16          8           0       -2.257470    0.570242    0.940514
     17          7           0       -1.410152   -0.898000   -0.529437
     18          1           0       -0.563668   -1.226937   -0.929575
     19          6           0       -2.539476   -1.799735   -0.455252
     20          1           0       -3.458350   -1.235550   -0.514663
     21          1           0       -2.492298   -2.486537   -1.290415
     22          1           0       -2.544729   -2.366866    0.469467
 ---------------------------------------------------------------------

 The electronic state is 1-A.
 Alpha  occ. eigenvalues --  -20.53529 -20.51389 -15.59793 -15.57904 -11.35941
 Alpha  occ. eigenvalues --  -11.33651 -11.27928 -11.25237 -11.24391 -11.23271
 Alpha  occ. eigenvalues --   -1.40472  -1.38357  -1.25313  -1.22284  -1.06067
 Alpha  occ. eigenvalues --   -1.00148  -0.95768  -0.88067  -0.80843  -0.78307
 Alpha  occ. eigenvalues --   -0.72453  -0.68630  -0.67729  -0.63091  -0.62424
 Alpha  occ. eigenvalues --   -0.62283  -0.59559  -0.59313  -0.58398  -0.55778
 Alpha  occ. eigenvalues --   -0.54865  -0.54849  -0.53830  -0.52098  -0.49318
 Alpha  occ. eigenvalues --   -0.43869  -0.42861  -0.38946  -0.38228
 Alpha virt. eigenvalues --    0.19180   0.20135   0.20394   0.24840   0.25577
 Alpha virt. eigenvalues --    0.27799   0.28729   0.29503   0.30165   0.31246
 Alpha virt. eigenvalues --    0.32146   0.32762   0.34172   0.34747   0.37888

 Mulliken atomic charges:
              1
     1  H    0.219221
     2  C   -0.589003
     3  H    0.174595
     4  H    0.202300
     5  C    0.732127
     6  O   -0.583608
     7  N   -0.833886
     8  H    0.385886
     9  C   -0.017854
    10  H    0.243800
    11  C   -0.517116
    12  H    0.164808
    13  H    0.221665
    14  H    0.174837
    15  C    0.767432
    16  O   -0.624586
    17  N   -0.789842
    18  H    0.396060
    19  C   -0.275355
    20  H    0.202814
    21  H    0.164158
    22  H    0.181550
 Sum of Mulliken atomic charges =   0.00000

 Dipole moment (field-independent basis, Debye):
    X=              3.0355    Y=             -0.0628    Z=             -5.4022  Tot=              6.1969
 Quadrupole moment (field-independent basis, Debye-Ang):
   XX=            -61.8509   YY=            -55.7098   ZZ=            -64.8469
   XY=              6.1268   XZ=             -1.5422   YZ=              1.7508

 Normal termination of Gaussian 09 at Fri Feb 10 16:41:27 2017.
