 Gaussian 09, Revision A.02,
 Gaussian 09:  EM64L-G09RevA.02 11-Jun-2009

 -------------------------------------------
 # HF/6-31G* Opt=(ModRedundant) geom=nocrowd
 -------------------------------------------

 ------------------
 Phi Psi fixed scan
 ------------------
 Symbolic Z-matrix:
 Charge =  0 Multiplicity = 1

 SCF Done:  E(RHF) =  -492.849847959     A.U. after   15 cycles
 SCF Done:  E(RHF) =  -492.855825739     A.U. after   13 cycles
 SCF Done:  E(RHF) =  -492.856619228     A.U. after   13 cycles
 SCF Done:  E(RHF) =  -492.857422863     A.U. after   13 cycles
 SCF Done:  E(RHF) =  -492.858135003     A.U. after   13 cycles
 SCF Done:  E(RHF) =  -492.858209032     A.U. after   14 cycles
 SCF Done:  E(RHF) =  -492.858644401     A.U. after   13 cycles
 SCF Done:  E(RHF) =  -492.858677981     A.U. after   12 cycles
 SCF Done:  E(RHF) =  -492.858710754     A.U. after   11 cycles
 SCF Done:  E(RHF) =  -492.858752790     A.U. after   12 cycles
 SCF Done:  E(RHF) =  -492.859002851     A.U. after   12 cycles
 SCF Done:  E(RHF) =  -492.859017888     A.U. after   11 cycles
 SCF Done:  E(RHF) =  -492.859039462     A.U. after   10 cycles
 SCF Done:  E(RHF) =  -492.859063338     A.U. after   11 cycles
 SCF Done:  E(RHF) =  -492.859077098     A.U. after   11 cycles
 SCF Done:  E(RHF) =  -492.859089472     A.U. after   12 cycles
 SCF Done:  E(RHF) =  -492.859094107     A.U. after   11 cycles
 SCF Done:  E(RHF) =  -492.859094277     A.U. after    8 cycles
 SCF Done:  E(RHF) =  -492.859094307     A.U. after    8 cycles
 SCF Done:  E(RHF) =  -492.859094311     A.U. after    7 cycles
 Optimization completed.
    -- Stationary point found.

                         Standard orientation:
 ---------------------------------------------------------------------
 Center     Atomic      Atomic             Coordinates (Angstroms)
 Number     Number       Type             X           Y           Z
 ---------------------------------------------------------------------
      1          1           0       -3.937265   -1.301900    0.032930
      2          6           0       -3.188349   -0.803896    0.631058
      3          1           0       -2.811318   -1.501703    1.372951
      4          1           0       -3.631641    0.036963    1.152182
      5          6           0       -2.050553   -0.368095   -0.264554
      6          8           0       -1.889065   -0.818051   -1.365046
      7          7           0       -1.231852    0.582580    0.271654
      8          1           0       -1.255676    0.679918    1.263702
      9          6           0        0.045547    0.879093   -0.332718
     10          1           0       -0.053108    0.685479   -1.389950
     11          6           0        0.414816    2.347837   -0.106589
     12          1           0        0.492527    2.563138    0.953995
     13          1           0        1.367786    2.583385   -0.567549
     14          1           0       -0.347399    2.987685   -0.534436
     15          6           0        1.129930   -0.014514    0.273074
     16          8           0        1.081646   -0.347662    1.427742
     17          7           0        2.159427   -0.322388   -0.541251
     18          1           0        2.039823   -0.187148   -1.518846
     19          6           0        3.238423   -1.182741   -0.101898
     20          1           0        3.584579   -0.859925    0.868546
     21          1           0        2.925764   -2.218819   -0.028401
     22          1           0        4.053370   -1.108823   -0.809755
 ---------------------------------------------------------------------

 The electronic state is 1-A.
 Alpha  occ. eigenvalues --  -20.52712 -20.52466 -15.58974 -15.57954 -11.34716
 Alpha  occ. eigenvalues --  -11.34504 -11.27727 -11.25950 -11.22947 -11.22892
 Alpha  occ. eigenvalues --   -1.39815  -1.38902  -1.23823  -1.23518  -1.05649
 Alpha  occ. eigenvalues --   -0.99191  -0.96125  -0.87634  -0.79921  -0.78442
 Alpha  occ. eigenvalues --   -0.73187  -0.67330  -0.66328  -0.63864  -0.62627
 Alpha  occ. eigenvalues --   -0.62062  -0.59914  -0.58341  -0.57568  -0.56514
 Alpha  occ. eigenvalues --   -0.55553  -0.53978  -0.52971  -0.51495  -0.50301
 Alpha  occ. eigenvalues --   -0.42897  -0.41989  -0.39725  -0.38536
 Alpha virt. eigenvalues --    0.19427   0.20331   0.21944   0.23445   0.26636
 Alpha virt. eigenvalues --    0.26894   0.29429   0.30463   0.31148   0.31438
 Alpha virt. eigenvalues --    0.32383   0.32966   0.33863   0.34550   0.37702

 Mulliken atomic charges:
              1
     1  H    0.212673
     2  C   -0.591287
     3  H    0.202207
     4  H    0.184503
     5  C    0.742552
     6  O   -0.604869
     7  N   -0.769690
     8  H    0.392726
     9  C   -0.077190
    10  H    0.226021
    11  C   -0.481363
    12  H    0.179399
    13  H    0.174023
    14  H    0.188492
    15  C    0.772204
    16  O   -0.628109
    17  N   -0.789821
    18  H    0.387969
    19  C   -0.276204
    20  H    0.204741
    21  H    0.180672
    22  H    0.170351
 Sum of Mulliken atomic charges =   0.00000

 Dipole moment (field-independent basis, Debye):
    X=              1.2652    Y=              1.5294    Z=             -0.1861  Tot=              1.9936
 Quadrupole moment (field-independent basis, Debye-Ang):
   XX=            -52.6158   YY=            -59.7443   ZZ=            -64.9537
   XY=             -2.4336   XZ=            -12.1829   YZ=             -1.1938

 Normal termination of Gaussian 09 at Fri Feb 10 16:04:07 2017.
