 Gaussian 09, Revision A.02,
 Gaussian 09:  EM64L-G09RevA.02 11-Jun-2009

 -------------------------------------------
 # HF/6-31G* Opt=(ModRedundant) geom=nocrowd
 -------------------------------------------

 ------------------
 Phi Psi fixed scan
 ------------------
 Symbolic Z-matrix:
 Charge =  0 Multiplicity = 1

 SCF Done:  E(RHF) =  -492.852900971     A.U. after   15 cycles
 SCF Done:  E(RHF) =  -492.858427112     A.U. after   13 cycles
 SCF Done:  E(RHF) =  -492.858999061     A.U. after   13 cycles
 SCF Done:  E(RHF) =  -492.859226098     A.U. after   13 cycles
 SCF Done:  E(RHF) =  -492.859543788     A.U. after   13 cycles
 SCF Done:  E(RHF) =  -492.859655503     A.U. after   11 cycles
 SCF Done:  E(RHF) =  -492.859665153     A.U. after   11 cycles
 SCF Done:  E(RHF) =  -492.859727382     A.U. after   11 cycles
 SCF Done:  E(RHF) =  -492.859781350     A.U. after   11 cycles
 SCF Done:  E(RHF) =  -492.859927841     A.U. after   13 cycles
 SCF Done:  E(RHF) =  -492.860219503     A.U. after   12 cycles
 SCF Done:  E(RHF) =  -492.860222361     A.U. after   10 cycles
 SCF Done:  E(RHF) =  -492.860227402     A.U. after   11 cycles
 SCF Done:  E(RHF) =  -492.860239911     A.U. after   11 cycles
 SCF Done:  E(RHF) =  -492.860257216     A.U. after   11 cycles
 SCF Done:  E(RHF) =  -492.860263383     A.U. after   10 cycles
 SCF Done:  E(RHF) =  -492.860262837     A.U. after   10 cycles
 SCF Done:  E(RHF) =  -492.860264239     A.U. after   10 cycles
 SCF Done:  E(RHF) =  -492.860264434     A.U. after    8 cycles
 SCF Done:  E(RHF) =  -492.860264441     A.U. after    7 cycles
 Optimization completed.
    -- Stationary point found.

                         Standard orientation:
 ---------------------------------------------------------------------
 Center     Atomic      Atomic             Coordinates (Angstroms)
 Number     Number       Type             X           Y           Z
 ---------------------------------------------------------------------
      1          1           0       -3.875181   -1.197026    0.189165
      2          6           0       -3.081633   -0.773927    0.788966
      3          1           0       -2.785112   -1.513474    1.525974
      4          1           0       -3.444539    0.105050    1.307919
      5          6           0       -1.899275   -0.480293   -0.106949
      6          8           0       -1.627627   -1.179464   -1.048629
      7          7           0       -1.160565    0.602984    0.229439
      8          1           0       -1.326523    1.054708    1.100474
      9          6           0        0.050087    0.955518   -0.490231
     10          1           0       -0.074869    0.597605   -1.499989
     11          6           0        0.247237    2.466891   -0.495072
     12          1           0        0.373385    2.840490    0.513618
     13          1           0        1.135453    2.730296   -1.058794
     14          1           0       -0.608174    2.950923   -0.952411
     15          6           0        1.238972    0.260656    0.177717
     16          8           0        1.685784    0.658251    1.221053
     17          7           0        1.731661   -0.802284   -0.489331
     18          1           0        1.151016   -1.201307   -1.193376
     19          6           0        2.760709   -1.637856    0.092614
     20          1           0        3.558734   -1.015623    0.469324
     21          1           0        2.381753   -2.242049    0.910658
     22          1           0        3.154539   -2.290720   -0.674980
 ---------------------------------------------------------------------

 The electronic state is 1-A.
 Alpha  occ. eigenvalues --  -20.52924 -20.52179 -15.59310 -15.58208 -11.35613
 Alpha  occ. eigenvalues --  -11.33996 -11.27791 -11.25354 -11.23762 -11.22404
 Alpha  occ. eigenvalues --   -1.39910  -1.38810  -1.24578  -1.22899  -1.05781
 Alpha  occ. eigenvalues --   -0.99650  -0.96018  -0.87433  -0.80525  -0.78324
 Alpha  occ. eigenvalues --   -0.72890  -0.68006  -0.66874  -0.64255  -0.62305
 Alpha  occ. eigenvalues --   -0.61865  -0.59971  -0.58873  -0.57753  -0.56038
 Alpha  occ. eigenvalues --   -0.54878  -0.53756  -0.52032  -0.51877  -0.51166
 Alpha  occ. eigenvalues --   -0.43531  -0.42526  -0.39240  -0.38129
 Alpha virt. eigenvalues --    0.18986   0.20661   0.22222   0.24227   0.26351
 Alpha virt. eigenvalues --    0.27246   0.28241   0.30157   0.31003   0.32063
 Alpha virt. eigenvalues --    0.32556   0.33062   0.34387   0.35362   0.37895

 Mulliken atomic charges:
              1
     1  H    0.214369
     2  C   -0.582180
     3  H    0.205195
     4  H    0.176363
     5  C    0.751992
     6  O   -0.622841
     7  N   -0.792126
     8  H    0.394187
     9  C   -0.064994
    10  H    0.226822
    11  C   -0.491513
    12  H    0.191540
    13  H    0.179580
    14  H    0.176630
    15  C    0.775551
    16  O   -0.627409
    17  N   -0.787225
    18  H    0.406393
    19  C   -0.279464
    20  H    0.203108
    21  H    0.174087
    22  H    0.171934
 Sum of Mulliken atomic charges =   0.00000

 Dipole moment (field-independent basis, Debye):
    X=             -1.3444    Y=              0.2471    Z=              0.0646  Tot=              1.3685
 Quadrupole moment (field-independent basis, Debye-Ang):
   XX=            -57.4619   YY=            -58.8543   ZZ=            -63.5702
   XY=             -7.1612   XZ=            -10.5294   YZ=             -3.8807

 Normal termination of Gaussian 09 at Fri Feb 10 15:56:23 2017.
