 Gaussian 09, Revision A.02,
 Gaussian 09:  EM64L-G09RevA.02 11-Jun-2009

 -------------------------------------------
 # HF/6-31G* Opt=(ModRedundant) geom=nocrowd
 -------------------------------------------

 ------------------
 Phi Psi fixed scan
 ------------------
 Symbolic Z-matrix:
 Charge =  0 Multiplicity = 1

 SCF Done:  E(RHF) =  -492.853815281     A.U. after   15 cycles
 SCF Done:  E(RHF) =  -492.859905748     A.U. after   14 cycles
 SCF Done:  E(RHF) =  -492.859975957     A.U. after   12 cycles
 SCF Done:  E(RHF) =  -492.860173321     A.U. after   13 cycles
 SCF Done:  E(RHF) =  -492.860344653     A.U. after   12 cycles
 SCF Done:  E(RHF) =  -492.860347120     A.U. after   10 cycles
 SCF Done:  E(RHF) =  -492.860350435     A.U. after    9 cycles
 SCF Done:  E(RHF) =  -492.860353393     A.U. after   10 cycles
 SCF Done:  E(RHF) =  -492.860357077     A.U. after   10 cycles
 SCF Done:  E(RHF) =  -492.860363979     A.U. after   11 cycles
 SCF Done:  E(RHF) =  -492.860880239     A.U. after    9 cycles
 SCF Done:  E(RHF) =  -492.860880633     A.U. after    8 cycles
 SCF Done:  E(RHF) =  -492.860881440     A.U. after   10 cycles
 SCF Done:  E(RHF) =  -492.860882208     A.U. after   10 cycles
 SCF Done:  E(RHF) =  -492.860883424     A.U. after   10 cycles
 SCF Done:  E(RHF) =  -492.860884678     A.U. after    9 cycles
 SCF Done:  E(RHF) =  -492.860885993     A.U. after   10 cycles
 SCF Done:  E(RHF) =  -492.860886117     A.U. after    9 cycles
 SCF Done:  E(RHF) =  -492.860886129     A.U. after    8 cycles
 SCF Done:  E(RHF) =  -492.860886142     A.U. after    8 cycles
 Optimization completed.
    -- Stationary point found.

                         Standard orientation:
 ---------------------------------------------------------------------
 Center     Atomic      Atomic             Coordinates (Angstroms)
 Number     Number       Type             X           Y           Z
 ---------------------------------------------------------------------
      1          1           0        3.323768   -1.644532   -0.839719
      2          6           0        3.149361   -0.584690   -0.714168
      3          1           0        3.123105   -0.103720   -1.684438
      4          1           0        3.977197   -0.175467   -0.145154
      5          6           0        1.879476   -0.391726    0.083642
      6          8           0        1.628345   -1.081310    1.041596
      7          7           0        1.063269    0.598935   -0.326722
      8          1           0        1.299297    1.107288   -1.148093
      9          6           0       -0.119283    1.027522    0.409211
     10          1           0        0.064681    0.796294    1.450545
     11          6           0       -0.323309    2.526696    0.242130
     12          1           0       -0.497600    2.783245   -0.796558
     13          1           0       -1.188367    2.853070    0.802807
     14          1           0        0.550411    3.060612    0.599827
     15          6           0       -1.365199    0.240780   -0.028361
     16          8           0       -2.327842    0.786390   -0.499355
     17          7           0       -1.286551   -1.088208    0.153718
     18          1           0       -0.484550   -1.460604    0.613325
     19          6           0       -2.388235   -1.960767   -0.185351
     20          1           0       -2.675317   -1.828737   -1.220326
     21          1           0       -2.074337   -2.985070   -0.035618
     22          1           0       -3.256207   -1.764997    0.433881
 ---------------------------------------------------------------------

 The electronic state is 1-A.
 Alpha  occ. eigenvalues --  -20.53516 -20.51775 -15.60073 -15.57034 -11.36303
 Alpha  occ. eigenvalues --  -11.33582 -11.28114 -11.24912 -11.24377 -11.22333
 Alpha  occ. eigenvalues --   -1.40444  -1.38416  -1.25264  -1.22004  -1.05990
 Alpha  occ. eigenvalues --   -1.00014  -0.95757  -0.87428  -0.81222  -0.77896
 Alpha  occ. eigenvalues --   -0.72673  -0.68840  -0.67403  -0.63885  -0.62336
 Alpha  occ. eigenvalues --   -0.61459  -0.60015  -0.59290  -0.58201  -0.55024
 Alpha  occ. eigenvalues --   -0.54638  -0.53401  -0.52731  -0.52397  -0.50782
 Alpha  occ. eigenvalues --   -0.44124  -0.43044  -0.38720  -0.37653
 Alpha virt. eigenvalues --    0.18084   0.20806   0.22031   0.24917   0.25992
 Alpha virt. eigenvalues --    0.27259   0.29238   0.30528   0.30754   0.31690
 Alpha virt. eigenvalues --    0.33117   0.33674   0.34014   0.35242   0.39022

 Mulliken atomic charges:
              1
     1  H    0.213319
     2  C   -0.574947
     3  H    0.172754
     4  H    0.209562
     5  C    0.758707
     6  O   -0.635937
     7  N   -0.796826
     8  H    0.391390
     9  C   -0.073000
    10  H    0.229937
    11  C   -0.482571
    12  H    0.177793
    13  H    0.199185
    14  H    0.167627
    15  C    0.776597
    16  O   -0.621136
    17  N   -0.817134
    18  H    0.436041
    19  C   -0.266345
    20  H    0.186772
    21  H    0.168620
    22  H    0.179591
 Sum of Mulliken atomic charges =   0.00000

 Dipole moment (field-independent basis, Debye):
    X=              3.1818    Y=              0.2309    Z=             -1.3548  Tot=              3.4659
 Quadrupole moment (field-independent basis, Debye-Ang):
   XX=            -63.1198   YY=            -57.8432   ZZ=            -61.1219
   XY=              8.5278   XZ=             -8.5055   YZ=              3.0796

 Normal termination of Gaussian 09 at Fri Feb 10 15:45:19 2017.
