 Gaussian 09, Revision A.02,
 Gaussian 09:  EM64L-G09RevA.02 11-Jun-2009

 -------------------------------------------
 # HF/6-31G* Opt=(ModRedundant) geom=nocrowd
 -------------------------------------------

 ------------------
 Phi Psi fixed scan
 ------------------
 Symbolic Z-matrix:
 Charge =  0 Multiplicity = 1

 SCF Done:  E(RHF) =  -492.854623936     A.U. after   15 cycles
 SCF Done:  E(RHF) =  -492.860337698     A.U. after   16 cycles
 SCF Done:  E(RHF) =  -492.860587350     A.U. after   13 cycles
 SCF Done:  E(RHF) =  -492.860633490     A.U. after   13 cycles
 SCF Done:  E(RHF) =  -492.860856654     A.U. after   12 cycles
 SCF Done:  E(RHF) =  -492.860870835     A.U. after   11 cycles
 SCF Done:  E(RHF) =  -492.860894939     A.U. after   12 cycles
 SCF Done:  E(RHF) =  -492.860903179     A.U. after    9 cycles
 SCF Done:  E(RHF) =  -492.860922111     A.U. after   11 cycles
 SCF Done:  E(RHF) =  -492.860951958     A.U. after   11 cycles
 SCF Done:  E(RHF) =  -492.861344444     A.U. after   11 cycles
 SCF Done:  E(RHF) =  -492.861354906     A.U. after   11 cycles
 SCF Done:  E(RHF) =  -492.861366857     A.U. after   11 cycles
 SCF Done:  E(RHF) =  -492.861384724     A.U. after   10 cycles
 SCF Done:  E(RHF) =  -492.861419609     A.U. after   11 cycles
 SCF Done:  E(RHF) =  -492.861423563     A.U. after   11 cycles
 SCF Done:  E(RHF) =  -492.861424328     A.U. after    9 cycles
 SCF Done:  E(RHF) =  -492.861424691     A.U. after   10 cycles
 SCF Done:  E(RHF) =  -492.861425006     A.U. after    9 cycles
 SCF Done:  E(RHF) =  -492.861425089     A.U. after    8 cycles
 Optimization completed.
    -- Stationary point found.

                         Standard orientation:
 ---------------------------------------------------------------------
 Center     Atomic      Atomic             Coordinates (Angstroms)
 Number     Number       Type             X           Y           Z
 ---------------------------------------------------------------------
      1          1           0       -3.241752   -1.688543    0.934336
      2          6           0       -3.116225   -0.629648    0.753335
      3          1           0       -3.104092   -0.099250    1.697739
      4          1           0       -3.966053   -0.288029    0.172512
      5          6           0       -1.862884   -0.421741   -0.066478
      6          8           0       -1.602534   -1.131477   -1.006705
      7          7           0       -1.073895    0.607885    0.301976
      8          1           0       -1.303480    1.128126    1.117732
      9          6           0        0.104211    1.017960   -0.451695
     10          1           0       -0.072184    0.734876   -1.479915
     11          6           0        0.295330    2.524233   -0.350883
     12          1           0        0.469586    2.825850    0.674804
     13          1           0        1.157044    2.833094   -0.928771
     14          1           0       -0.581786    3.035705   -0.732143
     15          6           0        1.337188    0.260623    0.061282
     16          8           0        2.164979    0.786937    0.756731
     17          7           0        1.400259   -1.025926   -0.325974
     18          1           0        0.612269   -1.411310   -0.799931
     19          6           0        2.432724   -1.911240    0.164695
     20          1           0        3.404443   -1.456776    0.032498
     21          1           0        2.304593   -2.139354    1.217881
     22          1           0        2.395240   -2.832899   -0.400493
 ---------------------------------------------------------------------

 The electronic state is 1-A.
 Alpha  occ. eigenvalues --  -20.53456 -20.51818 -15.60061 -15.57191 -11.36254
 Alpha  occ. eigenvalues --  -11.33615 -11.28017 -11.24928 -11.24315 -11.22348
 Alpha  occ. eigenvalues --   -1.40384  -1.38446  -1.25179  -1.22154  -1.05978
 Alpha  occ. eigenvalues --   -0.99995  -0.95798  -0.87403  -0.81170  -0.77866
 Alpha  occ. eigenvalues --   -0.72632  -0.68765  -0.67375  -0.63968  -0.62356
 Alpha  occ. eigenvalues --   -0.61399  -0.60129  -0.59288  -0.58100  -0.55258
 Alpha  occ. eigenvalues --   -0.54586  -0.53546  -0.52513  -0.52049  -0.51215
 Alpha  occ. eigenvalues --   -0.43978  -0.42995  -0.38572  -0.37958
 Alpha virt. eigenvalues --    0.18216   0.20900   0.21976   0.24881   0.26120
 Alpha virt. eigenvalues --    0.27059   0.29043   0.30655   0.31155   0.31871
 Alpha virt. eigenvalues --    0.33164   0.33662   0.33957   0.35167   0.38735

 Mulliken atomic charges:
              1
     1  H    0.212986
     2  C   -0.574919
     3  H    0.172610
     4  H    0.209756
     5  C    0.759315
     6  O   -0.634186
     7  N   -0.800031
     8  H    0.392668
     9  C   -0.069830
    10  H    0.228584
    11  C   -0.485004
    12  H    0.185437
    13  H    0.190945
    14  H    0.169027
    15  C    0.776084
    16  O   -0.621782
    17  N   -0.811225
    18  H    0.432449
    19  C   -0.271059
    20  H    0.196285
    21  H    0.171515
    22  H    0.170375
 Sum of Mulliken atomic charges =   0.00000

 Dipole moment (field-independent basis, Debye):
    X=             -2.9027    Y=              0.2627    Z=              0.9079  Tot=              3.0526
 Quadrupole moment (field-independent basis, Debye-Ang):
   XX=            -61.4835   YY=            -58.1368   ZZ=            -61.9016
   XY=             -8.2554   XZ=             -9.3473   YZ=             -3.6234

 Normal termination of Gaussian 09 at Fri Feb 10 15:49:15 2017.
