 Gaussian 09, Revision A.02,
 Gaussian 09:  EM64L-G09RevA.02 11-Jun-2009

 -------------------------------------------
 # HF/6-31G* Opt=(ModRedundant) geom=nocrowd
 -------------------------------------------

 ------------------
 Phi Psi fixed scan
 ------------------
 Symbolic Z-matrix:
 Charge =  0 Multiplicity = 1

 SCF Done:  E(RHF) =  -492.851035748     A.U. after   15 cycles
 SCF Done:  E(RHF) =  -492.857810178     A.U. after   14 cycles
 SCF Done:  E(RHF) =  -492.858528161     A.U. after   13 cycles
 SCF Done:  E(RHF) =  -492.858637135     A.U. after   13 cycles
 SCF Done:  E(RHF) =  -492.858973891     A.U. after   12 cycles
 SCF Done:  E(RHF) =  -492.859045415     A.U. after   12 cycles
 SCF Done:  E(RHF) =  -492.859068464     A.U. after   12 cycles
 SCF Done:  E(RHF) =  -492.859111526     A.U. after   11 cycles
 SCF Done:  E(RHF) =  -492.859172319     A.U. after   11 cycles
 SCF Done:  E(RHF) =  -492.859309379     A.U. after   12 cycles
 SCF Done:  E(RHF) =  -492.859786562     A.U. after   11 cycles
 SCF Done:  E(RHF) =  -492.859807865     A.U. after   11 cycles
 SCF Done:  E(RHF) =  -492.859809433     A.U. after    8 cycles
 SCF Done:  E(RHF) =  -492.859815073     A.U. after   11 cycles
 SCF Done:  E(RHF) =  -492.859816373     A.U. after   10 cycles
 SCF Done:  E(RHF) =  -492.859817712     A.U. after    9 cycles
 SCF Done:  E(RHF) =  -492.859819211     A.U. after   10 cycles
 SCF Done:  E(RHF) =  -492.859819845     A.U. after   10 cycles
 SCF Done:  E(RHF) =  -492.859820035     A.U. after    8 cycles
 SCF Done:  E(RHF) =  -492.859820045     A.U. after    7 cycles
 Optimization completed.
    -- Stationary point found.

                         Standard orientation:
 ---------------------------------------------------------------------
 Center     Atomic      Atomic             Coordinates (Angstroms)
 Number     Number       Type             X           Y           Z
 ---------------------------------------------------------------------
      1          1           0        3.450463   -1.608424   -0.645275
      2          6           0        3.185453   -0.560540   -0.652474
      3          1           0        3.125833   -0.206724   -1.674813
      4          1           0        3.969821   -0.011033   -0.142285
      5          6           0        1.894164   -0.377859    0.113030
      6          8           0        1.637947   -1.039923    1.088288
      7          7           0        1.059671    0.573743   -0.350831
      8          1           0        1.306523    1.059449   -1.182715
      9          6           0       -0.125471    1.034016    0.359253
     10          1           0        0.060005    0.865261    1.413531
     11          6           0       -0.334166    2.522497    0.111135
     12          1           0       -0.506078    2.722573   -0.941334
     13          1           0       -1.200087    2.875275    0.651861
     14          1           0        0.538919    3.076910    0.437780
     15          6           0       -1.386001    0.228848    0.003486
     16          8           0       -2.432248    0.775511   -0.223291
     17          7           0       -1.230247   -1.108680   -0.030339
     18          1           0       -0.404289   -1.489199    0.377632
     19          6           0       -2.369709   -1.979701   -0.220338
     20          1           0       -2.921578   -1.677213   -1.098645
     21          1           0       -2.011586   -2.990993   -0.360957
     22          1           0       -3.045116   -1.959598    0.628884
 ---------------------------------------------------------------------

 The electronic state is 1-A.
 Alpha  occ. eigenvalues --  -20.53594 -20.51925 -15.60010 -15.57055 -11.36313
 Alpha  occ. eigenvalues --  -11.33715 -11.28235 -11.24842 -11.24423 -11.22407
 Alpha  occ. eigenvalues --   -1.40518  -1.38584  -1.25327  -1.21981  -1.06029
 Alpha  occ. eigenvalues --   -1.00045  -0.95652  -0.87530  -0.81232  -0.77813
 Alpha  occ. eigenvalues --   -0.72718  -0.68870  -0.67423  -0.63867  -0.62362
 Alpha  occ. eigenvalues --   -0.61730  -0.59767  -0.59216  -0.58306  -0.54904
 Alpha  occ. eigenvalues --   -0.54580  -0.53523  -0.53231  -0.52439  -0.50403
 Alpha  occ. eigenvalues --   -0.44235  -0.43144  -0.39149  -0.37512
 Alpha virt. eigenvalues --    0.18084   0.20621   0.21849   0.25134   0.25923
 Alpha virt. eigenvalues --    0.27516   0.29546   0.30285   0.30615   0.31435
 Alpha virt. eigenvalues --    0.33010   0.33704   0.33871   0.34967   0.38671

 Mulliken atomic charges:
              1
     1  H    0.214397
     2  C   -0.576881
     3  H    0.174342
     4  H    0.208202
     5  C    0.751478
     6  O   -0.632079
     7  N   -0.793998
     8  H    0.390308
     9  C   -0.071544
    10  H    0.233791
    11  C   -0.485978
    12  H    0.170662
    13  H    0.209040
    14  H    0.167734
    15  C    0.774101
    16  O   -0.618792
    17  N   -0.808283
    18  H    0.428354
    19  C   -0.272113
    20  H    0.194934
    21  H    0.168297
    22  H    0.174027
 Sum of Mulliken atomic charges =   0.00000

 Dipole moment (field-independent basis, Debye):
    X=              3.3568    Y=              0.2719    Z=             -1.8965  Tot=              3.8650
 Quadrupole moment (field-independent basis, Debye-Ang):
   XX=            -63.7888   YY=            -57.6678   ZZ=            -61.0554
   XY=              8.4987   XZ=             -7.1069   YZ=              2.5377

 Normal termination of Gaussian 09 at Fri Feb 10 15:41:35 2017.
