 Gaussian 09, Revision A.02,
 Gaussian 09:  EM64L-G09RevA.02 11-Jun-2009

 -------------------------------------------
 # HF/6-31G* Opt=(ModRedundant) geom=nocrowd
 -------------------------------------------

 ------------------
 Phi Psi fixed scan
 ------------------
 Symbolic Z-matrix:
 Charge =  0 Multiplicity = 1

 SCF Done:  E(RHF) =  -492.847396643     A.U. after   15 cycles
 SCF Done:  E(RHF) =  -492.854200736     A.U. after   14 cycles
 SCF Done:  E(RHF) =  -492.855761808     A.U. after   13 cycles
 SCF Done:  E(RHF) =  -492.855884680     A.U. after   13 cycles
 SCF Done:  E(RHF) =  -492.856101211     A.U. after   12 cycles
 SCF Done:  E(RHF) =  -492.856208338     A.U. after   11 cycles
 SCF Done:  E(RHF) =  -492.856299461     A.U. after   13 cycles
 SCF Done:  E(RHF) =  -492.856378738     A.U. after   12 cycles
 SCF Done:  E(RHF) =  -492.856442963     A.U. after   11 cycles
 SCF Done:  E(RHF) =  -492.856525712     A.U. after   12 cycles
 SCF Done:  E(RHF) =  -492.856619920     A.U. after   11 cycles
 SCF Done:  E(RHF) =  -492.856934066     A.U. after   14 cycles
 SCF Done:  E(RHF) =  -492.856915763     A.U. after   13 cycles
 SCF Done:  E(RHF) =  -492.857001298     A.U. after   11 cycles
 SCF Done:  E(RHF) =  -492.857027303     A.U. after   11 cycles
 SCF Done:  E(RHF) =  -492.857034894     A.U. after   10 cycles
 SCF Done:  E(RHF) =  -492.857050082     A.U. after   11 cycles
 SCF Done:  E(RHF) =  -492.857057741     A.U. after   11 cycles
 SCF Done:  E(RHF) =  -492.857058524     A.U. after    9 cycles
 SCF Done:  E(RHF) =  -492.857058561     A.U. after    8 cycles
 Optimization completed.
    -- Stationary point found.

                         Standard orientation:
 ---------------------------------------------------------------------
 Center     Atomic      Atomic             Coordinates (Angstroms)
 Number     Number       Type             X           Y           Z
 ---------------------------------------------------------------------
      1          1           0        3.616762   -1.574300   -0.251193
      2          6           0        3.219182   -0.615139   -0.549459
      3          1           0        3.089164   -0.591692   -1.625589
      4          1           0        3.935665    0.153653   -0.277219
      5          6           0        1.925015   -0.366364    0.194623
      6          8           0        1.680134   -0.890575    1.247629
      7          7           0        1.063362    0.492024   -0.402948
      8          1           0        1.322515    0.888486   -1.277515
      9          6           0       -0.109710    1.042813    0.254856
     10          1           0        0.093215    1.047771    1.318660
     11          6           0       -0.343282    2.475719   -0.218932
     12          1           0       -0.520015    2.507643   -1.290714
     13          1           0       -1.209694    2.891193    0.272432
     14          1           0        0.523295    3.087414    0.006917
     15          6           0       -1.393326    0.216341    0.099208
     16          8           0       -2.454103    0.714247    0.369181
     17          7           0       -1.271177   -1.051769   -0.338981
     18          1           0       -0.369635   -1.465628   -0.297916
     19          6           0       -2.415873   -1.938757   -0.330699
     20          1           0       -3.243734   -1.466353   -0.838040
     21          1           0       -2.153046   -2.847863   -0.855518
     22          1           0       -2.730058   -2.189162    0.677147
 ---------------------------------------------------------------------

 The electronic state is 1-A.
 Alpha  occ. eigenvalues --  -20.53567 -20.51759 -15.59813 -15.57762 -11.36122
 Alpha  occ. eigenvalues --  -11.33886 -11.28216 -11.25084 -11.24442 -11.22667
 Alpha  occ. eigenvalues --   -1.40511  -1.38651  -1.25331  -1.22280  -1.06018
 Alpha  occ. eigenvalues --   -1.00061  -0.95735  -0.87840  -0.81076  -0.78230
 Alpha  occ. eigenvalues --   -0.72841  -0.68705  -0.67464  -0.63628  -0.62415
 Alpha  occ. eigenvalues --   -0.62158  -0.59532  -0.59243  -0.58400  -0.55122
 Alpha  occ. eigenvalues --   -0.54790  -0.54502  -0.53434  -0.52370  -0.49612
 Alpha  occ. eigenvalues --   -0.44222  -0.43057  -0.39420  -0.37734
 Alpha virt. eigenvalues --    0.18800   0.19919   0.21281   0.25041   0.25878
 Alpha virt. eigenvalues --    0.27767   0.29070   0.29436   0.30408   0.31105
 Alpha virt. eigenvalues --    0.32721   0.32970   0.33896   0.35010   0.37528

 Mulliken atomic charges:
              1
     1  H    0.216632
     2  C   -0.585464
     3  H    0.176070
     4  H    0.205130
     5  C    0.730405
     6  O   -0.606385
     7  N   -0.814524
     8  H    0.388249
     9  C   -0.038186
    10  H    0.242154
    11  C   -0.504280
    12  H    0.162091
    13  H    0.224303
    14  H    0.171473
    15  C    0.770896
    16  O   -0.621759
    17  N   -0.790149
    18  H    0.404457
    19  C   -0.276835
    20  H    0.200610
    21  H    0.166352
    22  H    0.178761
 Sum of Mulliken atomic charges =   0.00000

 Dipole moment (field-independent basis, Debye):
    X=              3.4007    Y=             -0.0299    Z=             -3.5985  Tot=              4.9513
 Quadrupole moment (field-independent basis, Debye-Ang):
   XX=            -63.8424   YY=            -56.5411   ZZ=            -62.6982
   XY=              7.6567   XZ=             -4.0533   YZ=              2.1137

 Normal termination of Gaussian 09 at Fri Feb 10 15:36:14 2017.
