 Gaussian 09, Revision A.02,
 Gaussian 09:  EM64L-G09RevA.02 11-Jun-2009

 -------------------------------------------
 # HF/6-31G* Opt=(ModRedundant) geom=nocrowd
 -------------------------------------------

 ------------------
 Phi Psi fixed scan
 ------------------
 Symbolic Z-matrix:
 Charge =  0 Multiplicity = 1

 SCF Done:  E(RHF) =  -492.839469806     A.U. after   15 cycles
 SCF Done:  E(RHF) =  -492.848054332     A.U. after   14 cycles
 SCF Done:  E(RHF) =  -492.849428094     A.U. after   13 cycles
 SCF Done:  E(RHF) =  -492.849642003     A.U. after   13 cycles
 SCF Done:  E(RHF) =  -492.849683731     A.U. after   13 cycles
 SCF Done:  E(RHF) =  -492.849803574     A.U. after   11 cycles
 SCF Done:  E(RHF) =  -492.849864796     A.U. after   13 cycles
 SCF Done:  E(RHF) =  -492.849917789     A.U. after   11 cycles
 SCF Done:  E(RHF) =  -492.849966316     A.U. after   11 cycles
 SCF Done:  E(RHF) =  -492.850008619     A.U. after   12 cycles
 SCF Done:  E(RHF) =  -492.850520527     A.U. after   12 cycles
 SCF Done:  E(RHF) =  -492.850527410     A.U. after   12 cycles
 SCF Done:  E(RHF) =  -492.850554335     A.U. after   12 cycles
 SCF Done:  E(RHF) =  -492.850561563     A.U. after   11 cycles
 SCF Done:  E(RHF) =  -492.850567955     A.U. after   11 cycles
 SCF Done:  E(RHF) =  -492.850568191     A.U. after    9 cycles
 SCF Done:  E(RHF) =  -492.850568291     A.U. after    8 cycles
 SCF Done:  E(RHF) =  -492.850568560     A.U. after    9 cycles
 SCF Done:  E(RHF) =  -492.850568905     A.U. after   10 cycles
 SCF Done:  E(RHF) =  -492.850568961     A.U. after    9 cycles
 Optimization completed.
    -- Stationary point found.

                         Standard orientation:
 ---------------------------------------------------------------------
 Center     Atomic      Atomic             Coordinates (Angstroms)
 Number     Number       Type             X           Y           Z
 ---------------------------------------------------------------------
      1          1           0        4.061903   -1.145875   -0.591095
      2          6           0        3.051582   -1.451684   -0.360274
      3          1           0        3.084640   -2.130458    0.486112
      4          1           0        2.628321   -1.981151   -1.206374
      5          6           0        2.246459   -0.229338    0.025161
      6          8           0        2.751039    0.734974    0.530631
      7          7           0        0.914851   -0.308972   -0.217698
      8          1           0        0.544343   -1.145231   -0.607092
      9          6           0       -0.008463    0.727023    0.223953
     10          1           0        0.331760    1.081200    1.184232
     11          6           0       -0.060852    1.908653   -0.746418
     12          1           0       -0.301293    1.597360   -1.758649
     13          1           0       -0.794611    2.641382   -0.424720
     14          1           0        0.910040    2.385445   -0.771278
     15          6           0       -1.362119    0.067255    0.494339
     16          8           0       -1.731425   -0.169598    1.609361
     17          7           0       -2.087492   -0.276611   -0.598927
     18          1           0       -1.844188    0.124458   -1.474304
     19          6           0       -3.417085   -0.836454   -0.461584
     20          1           0       -3.393351   -1.663183    0.232658
     21          1           0       -4.128962   -0.104246   -0.095990
     22          1           0       -3.744156   -1.196363   -1.428128
 ---------------------------------------------------------------------

 The electronic state is 1-A.
 Alpha  occ. eigenvalues --  -20.53185 -20.52384 -15.59461 -15.59103 -11.35072
 Alpha  occ. eigenvalues --  -11.35070 -11.27957 -11.26452 -11.23511 -11.22808
 Alpha  occ. eigenvalues --   -1.40138  -1.39216  -1.24928  -1.23264  -1.05870
 Alpha  occ. eigenvalues --   -0.99564  -0.96259  -0.89076  -0.79781  -0.79618
 Alpha  occ. eigenvalues --   -0.73349  -0.67428  -0.66463  -0.64459  -0.63189
 Alpha  occ. eigenvalues --   -0.62466  -0.59467  -0.59000  -0.57729  -0.57008
 Alpha  occ. eigenvalues --   -0.56167  -0.54878  -0.53336  -0.52129  -0.50038
 Alpha  occ. eigenvalues --   -0.43327  -0.41813  -0.39883  -0.38857
 Alpha virt. eigenvalues --    0.18526   0.19912   0.21662   0.22708   0.25701
 Alpha virt. eigenvalues --    0.27534   0.28250   0.30080   0.30519   0.31206
 Alpha virt. eigenvalues --    0.32651   0.33245   0.34712   0.35004   0.37115

 Mulliken atomic charges:
              1
     1  H    0.214030
     2  C   -0.582058
     3  H    0.205907
     4  H    0.169875
     5  C    0.753344
     6  O   -0.605254
     7  N   -0.819696
     8  H    0.390452
     9  C   -0.018961
    10  H    0.250147
    11  C   -0.500666
    12  H    0.142352
    13  H    0.174313
    14  H    0.218030
    15  C    0.724725
    16  O   -0.592538
    17  N   -0.792651
    18  H    0.390287
    19  C   -0.276136
    20  H    0.204952
    21  H    0.180769
    22  H    0.168775
 Sum of Mulliken atomic charges =   0.00000

 Dipole moment (field-independent basis, Debye):
    X=             -1.8901    Y=             -2.0238    Z=             -4.9699  Tot=              5.6893
 Quadrupole moment (field-independent basis, Debye-Ang):
   XX=            -62.9677   YY=            -57.5328   ZZ=            -64.5284
   XY=             -7.3478   XZ=              3.8713   YZ=              0.3548

 Normal termination of Gaussian 09 at Fri Feb 10 10:25:32 2017.
