 Gaussian 09, Revision A.02,
 Gaussian 09:  EM64L-G09RevA.02 11-Jun-2009

 -------------------------------------------
 # HF/6-31G* Opt=(ModRedundant) geom=nocrowd
 -------------------------------------------

 ------------------
 Phi Psi fixed scan
 ------------------
 Symbolic Z-matrix:
 Charge =  0 Multiplicity = 1

 SCF Done:  E(RHF) =  -492.847587089     A.U. after   15 cycles
 SCF Done:  E(RHF) =  -492.854573754     A.U. after   13 cycles
 SCF Done:  E(RHF) =  -492.855363465     A.U. after   13 cycles
 SCF Done:  E(RHF) =  -492.855790478     A.U. after   13 cycles
 SCF Done:  E(RHF) =  -492.856141988     A.U. after   13 cycles
 SCF Done:  E(RHF) =  -492.856249199     A.U. after   13 cycles
 SCF Done:  E(RHF) =  -492.856218626     A.U. after   12 cycles
 SCF Done:  E(RHF) =  -492.856373492     A.U. after   12 cycles
 SCF Done:  E(RHF) =  -492.856406101     A.U. after   11 cycles
 SCF Done:  E(RHF) =  -492.856440955     A.U. after   12 cycles
 SCF Done:  E(RHF) =  -492.856700988     A.U. after   11 cycles
 SCF Done:  E(RHF) =  -492.856707035     A.U. after   11 cycles
 SCF Done:  E(RHF) =  -492.856715402     A.U. after   11 cycles
 SCF Done:  E(RHF) =  -492.856716639     A.U. after   10 cycles
 SCF Done:  E(RHF) =  -492.856719005     A.U. after   10 cycles
 SCF Done:  E(RHF) =  -492.856719914     A.U. after   10 cycles
 SCF Done:  E(RHF) =  -492.856720071     A.U. after   10 cycles
 SCF Done:  E(RHF) =  -492.856720247     A.U. after    9 cycles
 SCF Done:  E(RHF) =  -492.856720253     A.U. after    6 cycles
 SCF Done:  E(RHF) =  -492.856720257     A.U. after    7 cycles
 Optimization completed.
    -- Stationary point found.

                         Standard orientation:
 ---------------------------------------------------------------------
 Center     Atomic      Atomic             Coordinates (Angstroms)
 Number     Number       Type             X           Y           Z
 ---------------------------------------------------------------------
      1          1           0        3.859125   -1.564539   -0.156428
      2          6           0        3.085835   -1.110127   -0.758383
      3          1           0        2.584784   -1.869761   -1.347694
      4          1           0        3.550481   -0.403175   -1.439399
      5          6           0        2.128855   -0.368393    0.149665
      6          8           0        2.441461    0.000668    1.245525
      7          7           0        0.884204   -0.157930   -0.370609
      8          1           0        0.774125   -0.314003   -1.349190
      9          6           0       -0.047615    0.776394    0.244814
     10          1           0        0.126552    0.714520    1.310883
     11          6           0        0.171945    2.213250   -0.216869
     12          1           0        0.021037    2.304990   -1.287113
     13          1           0       -0.523321    2.881415    0.272595
     14          1           0        1.183496    2.518416    0.024762
     15          6           0       -1.489673    0.319859   -0.001220
     16          8           0       -2.356228    1.092697   -0.308140
     17          7           0       -1.723135   -0.991861    0.195822
     18          1           0       -0.964123   -1.578772    0.450807
     19          6           0       -3.054819   -1.547012    0.090882
     20          1           0       -3.472348   -1.362771   -0.890536
     21          1           0       -2.997281   -2.614862    0.253836
     22          1           0       -3.719039   -1.113663    0.828573
 ---------------------------------------------------------------------

 The electronic state is 1-A.
 Alpha  occ. eigenvalues --  -20.53487 -20.52511 -15.59649 -15.58470 -11.35894
 Alpha  occ. eigenvalues --  -11.34455 -11.27894 -11.25954 -11.24190 -11.21442
 Alpha  occ. eigenvalues --   -1.40374  -1.39301  -1.25308  -1.22731  -1.05573
 Alpha  occ. eigenvalues --   -0.99692  -0.96429  -0.87666  -0.80195  -0.78922
 Alpha  occ. eigenvalues --   -0.73376  -0.67891  -0.65938  -0.64944  -0.62826
 Alpha  occ. eigenvalues --   -0.62222  -0.60073  -0.59367  -0.58139  -0.56209
 Alpha  occ. eigenvalues --   -0.55546  -0.53422  -0.52533  -0.52281  -0.50380
 Alpha  occ. eigenvalues --   -0.43012  -0.42792  -0.39981  -0.38516
 Alpha virt. eigenvalues --    0.18847   0.19381   0.21956   0.23716   0.26614
 Alpha virt. eigenvalues --    0.27113   0.27532   0.29732   0.30339   0.31872
 Alpha virt. eigenvalues --    0.32578   0.33255   0.33860   0.34450   0.37602

 Mulliken atomic charges:
              1
     1  H    0.218379
     2  C   -0.589569
     3  H    0.179156
     4  H    0.200367
     5  C    0.745026
     6  O   -0.592537
     7  N   -0.817902
     8  H    0.383292
     9  C   -0.069546
    10  H    0.245203
    11  C   -0.468483
    12  H    0.161540
    13  H    0.195747
    14  H    0.178319
    15  C    0.757105
    16  O   -0.613371
    17  N   -0.788876
    18  H    0.399021
    19  C   -0.266476
    20  H    0.189037
    21  H    0.166896
    22  H    0.187675
 Sum of Mulliken atomic charges =   0.00000

 Dipole moment (field-independent basis, Debye):
    X=              0.9883    Y=             -3.4213    Z=             -2.3990  Tot=              4.2938
 Quadrupole moment (field-independent basis, Debye-Ang):
   XX=            -67.5001   YY=            -57.9106   ZZ=            -61.4775
   XY=              5.4927   XZ=            -10.4886   YZ=              0.9850

 Normal termination of Gaussian 09 at Fri Feb 10 09:07:17 2017.
