 Gaussian 09, Revision A.02,
 Gaussian 09:  EM64L-G09RevA.02 11-Jun-2009

 -------------------------------------------
 # HF/6-31G* Opt=(ModRedundant) geom=nocrowd
 -------------------------------------------

 ------------------
 Phi Psi fixed scan
 ------------------
 Symbolic Z-matrix:
 Charge =  0 Multiplicity = 1

 SCF Done:  E(RHF) =  -492.840835816     A.U. after   15 cycles
 SCF Done:  E(RHF) =  -492.848001562     A.U. after   14 cycles
 SCF Done:  E(RHF) =  -492.848763121     A.U. after   13 cycles
 SCF Done:  E(RHF) =  -492.849121607     A.U. after   16 cycles
 SCF Done:  E(RHF) =  -492.849657266     A.U. after   13 cycles
 SCF Done:  E(RHF) =  -492.850131727     A.U. after   14 cycles
 SCF Done:  E(RHF) =  -492.850634709     A.U. after   16 cycles
 SCF Done:  E(RHF) =  -492.850909127     A.U. after   16 cycles
 SCF Done:  E(RHF) =  -492.851036196     A.U. after   16 cycles
 SCF Done:  E(RHF) =  -492.851162819     A.U. after   11 cycles
 SCF Done:  E(RHF) =  -492.851435714     A.U. after   13 cycles
 SCF Done:  E(RHF) =  -492.851518678     A.U. after   11 cycles
 SCF Done:  E(RHF) =  -492.851601480     A.U. after   12 cycles
 SCF Done:  E(RHF) =  -492.851663389     A.U. after   12 cycles
 SCF Done:  E(RHF) =  -492.851680118     A.U. after   12 cycles
 SCF Done:  E(RHF) =  -492.851681668     A.U. after    9 cycles
 SCF Done:  E(RHF) =  -492.851682769     A.U. after    9 cycles
 SCF Done:  E(RHF) =  -492.851684838     A.U. after   10 cycles
 SCF Done:  E(RHF) =  -492.851686461     A.U. after   10 cycles
 SCF Done:  E(RHF) =  -492.851686697     A.U. after    8 cycles
 Optimization completed.
    -- Stationary point found.

                         Standard orientation:
 ---------------------------------------------------------------------
 Center     Atomic      Atomic             Coordinates (Angstroms)
 Number     Number       Type             X           Y           Z
 ---------------------------------------------------------------------
      1          1           0        4.041771   -1.323999   -0.131431
      2          6           0        2.995108   -1.539837    0.025813
      3          1           0        2.888937   -2.056884    0.974971
      4          1           0        2.633495   -2.193170   -0.760176
      5          6           0        2.227740   -0.236301    0.080022
      6          8           0        2.752082    0.806524    0.350642
      7          7           0        0.896908   -0.335038   -0.200795
      8          1           0        0.506839   -1.250658   -0.178000
      9          6           0       -0.002330    0.774275    0.106681
     10          1           0        0.336616    1.262361    1.008136
     11          6           0       -0.041813    1.805373   -1.024632
     12          1           0       -0.370620    1.358469   -1.957806
     13          1           0       -0.716193    2.616338   -0.770932
     14          1           0        0.949338    2.212729   -1.171394
     15          6           0       -1.400619    0.252799    0.421704
     16          8           0       -2.024620    0.663746    1.357378
     17          7           0       -1.884767   -0.701066   -0.419938
     18          1           0       -1.453942   -0.783479   -1.313631
     19          6           0       -3.260330   -1.146456   -0.308063
     20          1           0       -3.466343   -1.419018    0.715812
     21          1           0       -3.964182   -0.376148   -0.605132
     22          1           0       -3.396932   -2.015103   -0.938600
 ---------------------------------------------------------------------

 The electronic state is 1-A.
 Alpha  occ. eigenvalues --  -20.53494 -20.53052 -15.59600 -15.59109 -11.35356
 Alpha  occ. eigenvalues --  -11.35280 -11.27888 -11.26503 -11.23784 -11.22389
 Alpha  occ. eigenvalues --   -1.40422  -1.39742  -1.25405  -1.23051  -1.05863
 Alpha  occ. eigenvalues --   -0.99685  -0.96457  -0.88476  -0.79797  -0.79031
 Alpha  occ. eigenvalues --   -0.73661  -0.67873  -0.66749  -0.63839  -0.63536
 Alpha  occ. eigenvalues --   -0.62639  -0.59857  -0.59679  -0.57425  -0.57110
 Alpha  occ. eigenvalues --   -0.56152  -0.54734  -0.53113  -0.52124  -0.49798
 Alpha  occ. eigenvalues --   -0.43749  -0.42023  -0.40291  -0.39437
 Alpha virt. eigenvalues --    0.18283   0.19715   0.21452   0.23131   0.25980
 Alpha virt. eigenvalues --    0.27594   0.28605   0.29590   0.30182   0.31188
 Alpha virt. eigenvalues --    0.32482   0.33214   0.34605   0.35162   0.36652

 Mulliken atomic charges:
              1
     1  H    0.217517
     2  C   -0.588569
     3  H    0.199160
     4  H    0.178526
     5  C    0.742893
     6  O   -0.593383
     7  N   -0.820229
     8  H    0.389851
     9  C   -0.037013
    10  H    0.243215
    11  C   -0.488635
    12  H    0.148087
    13  H    0.183084
    14  H    0.215526
    15  C    0.734251
    16  O   -0.593621
    17  N   -0.794291
    18  H    0.385131
    19  C   -0.278564
    20  H    0.208138
    21  H    0.178790
    22  H    0.170136
 Sum of Mulliken atomic charges =   0.00000

 Dipole moment (field-independent basis, Debye):
    X=             -1.1229    Y=             -4.1841    Z=             -3.4863  Tot=              5.5607
 Quadrupole moment (field-independent basis, Debye-Ang):
   XX=            -66.1976   YY=            -58.1142   ZZ=            -62.8060
   XY=             -3.3397   XZ=              5.5064   YZ=             -2.1884

 Normal termination of Gaussian 09 at Fri Feb 10 10:30:26 2017.
