 Gaussian 09, Revision A.02,
 Gaussian 09:  EM64L-G09RevA.02 11-Jun-2009

 -------------------------------------------
 # HF/6-31G* Opt=(ModRedundant) geom=nocrowd
 -------------------------------------------

 ------------------
 Phi Psi fixed scan
 ------------------
 Symbolic Z-matrix:
 Charge =  0 Multiplicity = 1

 SCF Done:  E(RHF) =  -492.853664110     A.U. after   15 cycles
 SCF Done:  E(RHF) =  -492.859304121     A.U. after   13 cycles
 SCF Done:  E(RHF) =  -492.859402567     A.U. after   13 cycles
 SCF Done:  E(RHF) =  -492.859596751     A.U. after   12 cycles
 SCF Done:  E(RHF) =  -492.859653758     A.U. after   11 cycles
 SCF Done:  E(RHF) =  -492.859649322     A.U. after   11 cycles
 SCF Done:  E(RHF) =  -492.859666440     A.U. after   10 cycles
 SCF Done:  E(RHF) =  -492.859669693     A.U. after   10 cycles
 SCF Done:  E(RHF) =  -492.859671542     A.U. after   10 cycles
 SCF Done:  E(RHF) =  -492.859673694     A.U. after   10 cycles
 SCF Done:  E(RHF) =  -492.837315156     A.U. after   14 cycles
 SCF Done:  E(RHF) =  -492.859978565     A.U. after   13 cycles
 SCF Done:  E(RHF) =  -492.859983393     A.U. after   10 cycles
 SCF Done:  E(RHF) =  -492.859993091     A.U. after   11 cycles
 SCF Done:  E(RHF) =  -492.860001197     A.U. after   11 cycles
 SCF Done:  E(RHF) =  -492.860005512     A.U. after   10 cycles
 SCF Done:  E(RHF) =  -492.860008233     A.U. after   10 cycles
 SCF Done:  E(RHF) =  -492.860009408     A.U. after   11 cycles
 SCF Done:  E(RHF) =  -492.860009852     A.U. after   10 cycles
 SCF Done:  E(RHF) =  -492.860009875     A.U. after    7 cycles
 Optimization completed.
    -- Stationary point found.

                         Standard orientation:
 ---------------------------------------------------------------------
 Center     Atomic      Atomic             Coordinates (Angstroms)
 Number     Number       Type             X           Y           Z
 ---------------------------------------------------------------------
      1          1           0       -3.874154   -1.544847   -0.566183
      2          6           0       -3.275238   -1.169514    0.252084
      3          1           0       -2.842431   -1.999022    0.798287
      4          1           0       -3.928606   -0.618133    0.920448
      5          6           0       -2.236068   -0.219078   -0.302126
      6          8           0       -2.479677    0.521949   -1.217873
      7          7           0       -1.033532   -0.247936    0.311847
      8          1           0       -0.876407   -0.840072    1.096330
      9          6           0        0.045104    0.644054   -0.049599
     10          1           0       -0.055724    0.855362   -1.104622
     11          6           0        0.006584    1.959753    0.733207
     12          1           0        0.088691    1.767592    1.796602
     13          1           0        0.823024    2.611535    0.436795
     14          1           0       -0.928341    2.469533    0.535694
     15          6           0        1.348445   -0.094369    0.231844
     16          8           0        1.504376   -0.690249    1.267047
     17          7           0        2.293656   -0.020878   -0.720286
     18          1           0        2.068649    0.400362   -1.590941
     19          6           0        3.575251   -0.679138   -0.572864
     20          1           0        4.007822   -0.436172    0.387076
     21          1           0        3.479216   -1.756467   -0.642945
     22          1           0        4.235326   -0.331820   -1.356134
 ---------------------------------------------------------------------

 The electronic state is 1-A.
 Alpha  occ. eigenvalues --  -20.53037 -20.51722 -15.59664 -15.58227 -11.35112
 Alpha  occ. eigenvalues --  -11.34588 -11.27923 -11.26468 -11.22987 -11.22215
 Alpha  occ. eigenvalues --   -1.40078  -1.38560  -1.24321  -1.23621  -1.05582
 Alpha  occ. eigenvalues --   -0.99163  -0.96578  -0.88222  -0.80428  -0.78959
 Alpha  occ. eigenvalues --   -0.73133  -0.67260  -0.65796  -0.64381  -0.63242
 Alpha  occ. eigenvalues --   -0.62090  -0.60166  -0.58581  -0.57414  -0.56598
 Alpha  occ. eigenvalues --   -0.56156  -0.54082  -0.52493  -0.52159  -0.49826
 Alpha  occ. eigenvalues --   -0.42908  -0.41469  -0.39970  -0.38325
 Alpha virt. eigenvalues --    0.18848   0.21318   0.21401   0.23602   0.26178
 Alpha virt. eigenvalues --    0.27524   0.28857   0.30598   0.31222   0.31943
 Alpha virt. eigenvalues --    0.32326   0.33358   0.33653   0.35564   0.37283

 Mulliken atomic charges:
              1
     1  H    0.209738
     2  C   -0.579109
     3  H    0.174844
     4  H    0.201947
     5  C    0.754343
     6  O   -0.619410
     7  N   -0.815106
     8  H    0.409736
     9  C   -0.034369
    10  H    0.217463
    11  C   -0.487610
    12  H    0.184837
    13  H    0.163961
    14  H    0.197587
    15  C    0.776755
    16  O   -0.634184
    17  N   -0.797977
    18  H    0.392025
    19  C   -0.273970
    20  H    0.202519
    21  H    0.184545
    22  H    0.171434
 Sum of Mulliken atomic charges =   0.00000

 Dipole moment (field-independent basis, Debye):
    X=              1.9035    Y=             -0.3727    Z=             -0.5226  Tot=              2.0088
 Quadrupole moment (field-independent basis, Debye-Ang):
   XX=            -56.7087   YY=            -59.7375   ZZ=            -63.7713
   XY=              6.9798   XZ=            -14.3769   YZ=              2.6393

 Normal termination of Gaussian 09 at Fri Feb 10 09:37:18 2017.
