 Gaussian 09, Revision A.02,
 Gaussian 09:  EM64L-G09RevA.02 11-Jun-2009

 -------------------------------------------
 # HF/6-31G* Opt=(ModRedundant) geom=nocrowd
 -------------------------------------------

 ------------------
 Phi Psi fixed scan
 ------------------
 Symbolic Z-matrix:
 Charge =  0 Multiplicity = 1

 SCF Done:  E(RHF) =  -492.836128970     A.U. after   15 cycles
 SCF Done:  E(RHF) =  -492.847020501     A.U. after   14 cycles
 SCF Done:  E(RHF) =  -492.849857455     A.U. after   13 cycles
 SCF Done:  E(RHF) =  -492.850316132     A.U. after   13 cycles
 SCF Done:  E(RHF) =  -492.850571386     A.U. after   13 cycles
 SCF Done:  E(RHF) =  -492.851008709     A.U. after   13 cycles
 SCF Done:  E(RHF) =  -492.851506353     A.U. after   14 cycles
 SCF Done:  E(RHF) =  -492.851779039     A.U. after   13 cycles
 SCF Done:  E(RHF) =  -492.851974025     A.U. after   13 cycles
 SCF Done:  E(RHF) =  -492.852052902     A.U. after   12 cycles
 SCF Done:  E(RHF) =  -492.723294257     A.U. after   16 cycles
 SCF Done:  E(RHF) =  -492.852344997     A.U. after   16 cycles
 SCF Done:  E(RHF) =  -492.852405911     A.U. after   12 cycles
 SCF Done:  E(RHF) =  -492.852512689     A.U. after   11 cycles
 SCF Done:  E(RHF) =  -492.852470519     A.U. after   16 cycles
 SCF Done:  E(RHF) =  -492.852528701     A.U. after   16 cycles
 SCF Done:  E(RHF) =  -492.852535132     A.U. after   10 cycles
 SCF Done:  E(RHF) =  -492.852535392     A.U. after    9 cycles
 SCF Done:  E(RHF) =  -492.852535490     A.U. after    8 cycles
 SCF Done:  E(RHF) =  -492.852535502     A.U. after    7 cycles
 Optimization completed.
    -- Stationary point found.

                         Standard orientation:
 ---------------------------------------------------------------------
 Center     Atomic      Atomic             Coordinates (Angstroms)
 Number     Number       Type             X           Y           Z
 ---------------------------------------------------------------------
      1          1           0       -4.217712   -0.869172    0.519433
      2          6           0       -3.192338   -1.207249    0.551218
      3          1           0       -3.094952   -2.084714   -0.081340
      4          1           0       -2.928549   -1.489054    1.564175
      5          6           0       -2.294330   -0.109578    0.024155
      6          8           0       -2.708332    0.798466   -0.640511
      7          7           0       -0.978624   -0.227675    0.366913
      8          1           0       -0.685515   -1.143367    0.629783
      9          6           0        0.024169    0.564593   -0.334133
     10          1           0       -0.256492    0.640301   -1.378646
     11          6           0        0.110158    1.973314    0.248467
     12          1           0        0.372471    1.950190    1.301562
     13          1           0        0.834441    2.578668   -0.289631
     14          1           0       -0.854572    2.450794    0.153231
     15          6           0        1.315450   -0.261806   -0.317840
     16          8           0        1.313839   -1.373464   -0.780945
     17          7           0        2.399857    0.263952    0.275191
     18          1           0        2.371348    1.191620    0.623004
     19          6           0        3.657133   -0.454741    0.306949
     20          1           0        3.531333   -1.416433    0.785466
     21          1           0        4.041000   -0.619136   -0.692304
     22          1           0        4.373065    0.129148    0.869296
 ---------------------------------------------------------------------

 The electronic state is 1-A.
 Alpha  occ. eigenvalues --  -20.52848 -20.52666 -15.59632 -15.58239 -11.35217
 Alpha  occ. eigenvalues --  -11.34737 -11.27985 -11.26519 -11.23078 -11.22438
 Alpha  occ. eigenvalues --   -1.40115  -1.39197  -1.24316  -1.23531  -1.05615
 Alpha  occ. eigenvalues --   -0.99337  -0.96089  -0.88994  -0.80112  -0.78239
 Alpha  occ. eigenvalues --   -0.73139  -0.67515  -0.66435  -0.64943  -0.62904
 Alpha  occ. eigenvalues --   -0.62166  -0.59424  -0.58729  -0.56932  -0.56155
 Alpha  occ. eigenvalues --   -0.55929  -0.54348  -0.54210  -0.52539  -0.49556
 Alpha  occ. eigenvalues --   -0.42595  -0.41518  -0.40107  -0.39342
 Alpha virt. eigenvalues --    0.19155   0.20001   0.21928   0.23679   0.25896
 Alpha virt. eigenvalues --    0.28088   0.28457   0.29889   0.30850   0.31695
 Alpha virt. eigenvalues --    0.32552   0.33244   0.33887   0.34775   0.37456

 Mulliken atomic charges:
              1
     1  H    0.213771
     2  C   -0.589678
     3  H    0.200420
     4  H    0.184828
     5  C    0.737278
     6  O   -0.599802
     7  N   -0.789687
     8  H    0.397806
     9  C   -0.005755
    10  H    0.226735
    11  C   -0.520707
    12  H    0.162870
    13  H    0.157716
    14  H    0.229373
    15  C    0.729267
    16  O   -0.621759
    17  N   -0.800961
    18  H    0.403939
    19  C   -0.270207
    20  H    0.195451
    21  H    0.189616
    22  H    0.169487
 Sum of Mulliken atomic charges =   0.00000

 Dipole moment (field-independent basis, Debye):
    X=              2.7480    Y=              0.5061    Z=              2.8963  Tot=              4.0245
 Quadrupole moment (field-independent basis, Debye-Ang):
   XX=            -56.6317   YY=            -61.7691   ZZ=            -62.1465
   XY=             12.0798   XZ=             -1.3116   YZ=             -1.8658

 Normal termination of Gaussian 09 at Fri Feb 10 10:15:26 2017.
