 Gaussian 09, Revision A.02,
 Gaussian 09:  EM64L-G09RevA.02 11-Jun-2009

 -------------------------------------------
 # HF/6-31G* Opt=(ModRedundant) geom=nocrowd
 -------------------------------------------

 ------------------
 Phi Psi fixed scan
 ------------------
 Symbolic Z-matrix:
 Charge =  0 Multiplicity = 1

 SCF Done:  E(RHF) =  -492.838007229     A.U. after   15 cycles
 SCF Done:  E(RHF) =  -492.847003429     A.U. after   14 cycles
 SCF Done:  E(RHF) =  -492.850509236     A.U. after   13 cycles
 SCF Done:  E(RHF) =  -492.852844023     A.U. after   13 cycles
 SCF Done:  E(RHF) =  -492.854063078     A.U. after   14 cycles
 SCF Done:  E(RHF) =  -492.854636820     A.U. after   13 cycles
 SCF Done:  E(RHF) =  -492.854788378     A.U. after   13 cycles
 SCF Done:  E(RHF) =  -492.854881343     A.U. after   12 cycles
 SCF Done:  E(RHF) =  -492.854975736     A.U. after   12 cycles
 SCF Done:  E(RHF) =  -492.855130809     A.U. after   11 cycles
 SCF Done:  E(RHF) =  -492.855377476     A.U. after   16 cycles
 SCF Done:  E(RHF) =  -492.855521569     A.U. after   12 cycles
 SCF Done:  E(RHF) =  -492.855644958     A.U. after   13 cycles
 SCF Done:  E(RHF) =  -492.855644952     A.U. after   11 cycles
 SCF Done:  E(RHF) =  -492.855653778     A.U. after   10 cycles
 SCF Done:  E(RHF) =  -492.855656483     A.U. after   10 cycles
 SCF Done:  E(RHF) =  -492.855658011     A.U. after   11 cycles
 SCF Done:  E(RHF) =  -492.855658409     A.U. after    8 cycles
 SCF Done:  E(RHF) =  -492.855658834     A.U. after    9 cycles
 SCF Done:  E(RHF) =  -492.855658899     A.U. after    8 cycles
 Optimization completed.
    -- Stationary point found.

                         Standard orientation:
 ---------------------------------------------------------------------
 Center     Atomic      Atomic             Coordinates (Angstroms)
 Number     Number       Type             X           Y           Z
 ---------------------------------------------------------------------
      1          1           0       -3.964537   -1.428221   -0.150410
      2          6           0       -3.107636   -1.242523    0.480173
      3          1           0       -2.624387   -2.180538    0.729365
      4          1           0       -3.449921   -0.781940    1.402509
      5          6           0       -2.167352   -0.296063   -0.234266
      6          8           0       -2.520257    0.389784   -1.148240
      7          7           0       -0.879736   -0.296804    0.239572
      8          1           0       -0.769845   -0.668648    1.159688
      9          6           0        0.033815    0.783119   -0.105916
     10          1           0       -0.220431    1.085534   -1.111290
     11          6           0       -0.107181    1.991049    0.823171
     12          1           0        0.108956    1.716426    1.852328
     13          1           0        0.580367    2.771349    0.529099
     14          1           0       -1.119718    2.374193    0.772521
     15          6           0        1.491923    0.326945   -0.155524
     16          8           0        2.359504    1.125834   -0.380807
     17          7           0        1.745629   -0.973524    0.116953
     18          1           0        0.988032   -1.608836    0.016126
     19          6           0        3.088796   -1.497565   -0.025624
     20          1           0        3.779248   -0.870983    0.518550
     21          1           0        3.117126   -2.496896    0.388836
     22          1           0        3.405695   -1.533856   -1.062699
 ---------------------------------------------------------------------

 The electronic state is 1-A.
 Alpha  occ. eigenvalues --  -20.53871 -20.52350 -15.59690 -15.58676 -11.36077
 Alpha  occ. eigenvalues --  -11.34556 -11.27868 -11.25838 -11.24338 -11.22154
 Alpha  occ. eigenvalues --   -1.40678  -1.39317  -1.25551  -1.22742  -1.05717
 Alpha  occ. eigenvalues --   -0.99915  -0.96238  -0.88031  -0.80249  -0.78707
 Alpha  occ. eigenvalues --   -0.73525  -0.68119  -0.66088  -0.64064  -0.63071
 Alpha  occ. eigenvalues --   -0.62723  -0.59631  -0.59439  -0.58485  -0.56800
 Alpha  occ. eigenvalues --   -0.55362  -0.54449  -0.52709  -0.52348  -0.49858
 Alpha  occ. eigenvalues --   -0.43388  -0.43208  -0.39592  -0.39292
 Alpha virt. eigenvalues --    0.18633   0.19449   0.20804   0.24707   0.26631
 Alpha virt. eigenvalues --    0.27209   0.28587   0.29680   0.30148   0.31717
 Alpha virt. eigenvalues --    0.32153   0.33212   0.33471   0.34569   0.37254

 Mulliken atomic charges:
              1
     1  H    0.220718
     2  C   -0.591711
     3  H    0.181106
     4  H    0.196834
     5  C    0.743944
     6  O   -0.582082
     7  N   -0.825504
     8  H    0.377418
     9  C   -0.055314
    10  H    0.256962
    11  C   -0.490932
    12  H    0.153795
    13  H    0.212825
    14  H    0.183701
    15  C    0.763062
    16  O   -0.614523
    17  N   -0.798005
    18  H    0.395117
    19  C   -0.277901
    20  H    0.205330
    21  H    0.167085
    22  H    0.178076
 Sum of Mulliken atomic charges =   0.00000

 Dipole moment (field-independent basis, Debye):
    X=             -1.0371    Y=             -4.1949    Z=              3.3470  Tot=              5.4658
 Quadrupole moment (field-independent basis, Debye-Ang):
   XX=            -67.5771   YY=            -58.0767   ZZ=            -61.8984
   XY=             -3.2004   XZ=             -5.9240   YZ=              1.6268

 Normal termination of Gaussian 09 at Fri Feb 10 08:55:18 2017.
