 Gaussian 09, Revision A.02,
 Gaussian 09:  EM64L-G09RevA.02 11-Jun-2009

 -------------------------------------------
 # HF/6-31G* Opt=(ModRedundant) geom=nocrowd
 -------------------------------------------

 ------------------
 Phi Psi fixed scan
 ------------------
 Symbolic Z-matrix:
 Charge =  0 Multiplicity = 1

 SCF Done:  E(RHF) =  -492.847193306     A.U. after   15 cycles
 SCF Done:  E(RHF) =  -492.854205127     A.U. after   14 cycles
 SCF Done:  E(RHF) =  -492.854828655     A.U. after   13 cycles
 SCF Done:  E(RHF) =  -492.855131395     A.U. after   13 cycles
 SCF Done:  E(RHF) =  -492.855423920     A.U. after   13 cycles
 SCF Done:  E(RHF) =  -492.855543589     A.U. after   13 cycles
 SCF Done:  E(RHF) =  -492.855520000     A.U. after   13 cycles
 SCF Done:  E(RHF) =  -492.855658808     A.U. after   12 cycles
 SCF Done:  E(RHF) =  -492.855689739     A.U. after   12 cycles
 SCF Done:  E(RHF) =  -492.855723889     A.U. after   12 cycles
 SCF Done:  E(RHF) =  -492.855961239     A.U. after   11 cycles
 SCF Done:  E(RHF) =  -492.856030611     A.U. after   12 cycles
 SCF Done:  E(RHF) =  -492.856052283     A.U. after   11 cycles
 SCF Done:  E(RHF) =  -492.856066092     A.U. after   10 cycles
 SCF Done:  E(RHF) =  -492.856087647     A.U. after   12 cycles
 SCF Done:  E(RHF) =  -492.856101587     A.U. after   11 cycles
 SCF Done:  E(RHF) =  -492.856110963     A.U. after   11 cycles
 SCF Done:  E(RHF) =  -492.856112295     A.U. after   10 cycles
 SCF Done:  E(RHF) =  -492.856112959     A.U. after   10 cycles
 SCF Done:  E(RHF) =  -492.856112984     A.U. after    8 cycles
 Optimization completed.
    -- Stationary point found.

                         Standard orientation:
 ---------------------------------------------------------------------
 Center     Atomic      Atomic             Coordinates (Angstroms)
 Number     Number       Type             X           Y           Z
 ---------------------------------------------------------------------
      1          1           0        3.822860   -1.600482   -0.363647
      2          6           0        3.080281   -1.024631   -0.896466
      3          1           0        2.576335   -1.654745   -1.620404
      4          1           0        3.583829   -0.225630   -1.432580
      5          6           0        2.117444   -0.420857    0.102786
      6          8           0        2.410332   -0.250034    1.252642
      7          7           0        0.893906   -0.092674   -0.400340
      8          1           0        0.795632   -0.086313   -1.392571
      9          6           0       -0.040526    0.739671    0.345367
     10          1           0        0.112357    0.502997    1.388263
     11          6           0        0.188992    2.229286    0.121493
     12          1           0        0.053721    2.488629   -0.921097
     13          1           0       -0.513840    2.815705    0.701918
     14          1           0        1.194820    2.490631    0.429513
     15          6           0       -1.456529    0.317856   -0.058911
     16          8           0       -2.133889    0.978849   -0.798232
     17          7           0       -1.871774   -0.852242    0.468996
     18          1           0       -1.204740   -1.410988    0.949928
     19          6           0       -3.127167   -1.457716    0.081289
     20          1           0       -3.908427   -0.712386    0.096394
     21          1           0       -3.082643   -1.886999   -0.914652
     22          1           0       -3.371344   -2.238183    0.789718
 ---------------------------------------------------------------------

 The electronic state is 1-A.
 Alpha  occ. eigenvalues --  -20.53228 -20.52851 -15.59450 -15.58631 -11.35693
 Alpha  occ. eigenvalues --  -11.34609 -11.27845 -11.25933 -11.23958 -11.21516
 Alpha  occ. eigenvalues --   -1.40176  -1.39479  -1.24955  -1.23034  -1.05561
 Alpha  occ. eigenvalues --   -0.99599  -0.96426  -0.87695  -0.79991  -0.78966
 Alpha  occ. eigenvalues --   -0.73143  -0.67664  -0.65778  -0.65264  -0.62799
 Alpha  occ. eigenvalues --   -0.62133  -0.60234  -0.59123  -0.57955  -0.56509
 Alpha  occ. eigenvalues --   -0.55407  -0.53284  -0.52783  -0.51972  -0.50737
 Alpha  occ. eigenvalues --   -0.42975  -0.42712  -0.39814  -0.38713
 Alpha virt. eigenvalues --    0.19033   0.19892   0.21881   0.22982   0.26450
 Alpha virt. eigenvalues --    0.26960   0.27593   0.29987   0.31019   0.31911
 Alpha virt. eigenvalues --    0.32514   0.33002   0.33709   0.34791   0.37467

 Mulliken atomic charges:
              1
     1  H    0.216911
     2  C   -0.589006
     3  H    0.181025
     4  H    0.200025
     5  C    0.745002
     6  O   -0.598544
     7  N   -0.807346
     8  H    0.388323
     9  C   -0.068657
    10  H    0.233212
    11  C   -0.471804
    12  H    0.178806
    13  H    0.178053
    14  H    0.179105
    15  C    0.761824
    16  O   -0.608516
    17  N   -0.785801
    18  H    0.392958
    19  C   -0.274841
    20  H    0.206259
    21  H    0.171961
    22  H    0.171050
 Sum of Mulliken atomic charges =   0.00000

 Dipole moment (field-independent basis, Debye):
    X=              0.4615    Y=             -2.5555    Z=             -1.4860  Tot=              2.9920
 Quadrupole moment (field-independent basis, Debye-Ang):
   XX=            -64.7541   YY=            -57.9880   ZZ=            -62.5620
   XY=              5.9774   XZ=            -12.8869   YZ=              2.1327

 Normal termination of Gaussian 09 at Fri Feb 10 09:13:19 2017.
