 Gaussian 09, Revision A.02,
 Gaussian 09:  EM64L-G09RevA.02 11-Jun-2009

 -------------------------------------------
 # HF/6-31G* Opt=(ModRedundant) geom=nocrowd
 -------------------------------------------

 ------------------
 Phi Psi fixed scan
 ------------------
 Symbolic Z-matrix:
 Charge =  0 Multiplicity = 1

 SCF Done:  E(RHF) =  -492.850853824     A.U. after   15 cycles
 SCF Done:  E(RHF) =  -492.857575658     A.U. after   13 cycles
 SCF Done:  E(RHF) =  -492.858636442     A.U. after   13 cycles
 SCF Done:  E(RHF) =  -492.859013087     A.U. after   14 cycles
 SCF Done:  E(RHF) =  -492.859258735     A.U. after   12 cycles
 SCF Done:  E(RHF) =  -492.859377202     A.U. after   12 cycles
 SCF Done:  E(RHF) =  -492.859458645     A.U. after   12 cycles
 SCF Done:  E(RHF) =  -492.859488670     A.U. after   12 cycles
 SCF Done:  E(RHF) =  -492.859495503     A.U. after    9 cycles
 SCF Done:  E(RHF) =  -492.859507642     A.U. after   10 cycles
 SCF Done:  E(RHF) =  -492.859942210     A.U. after   10 cycles
 SCF Done:  E(RHF) =  -492.859943435     A.U. after    9 cycles
 SCF Done:  E(RHF) =  -492.859944782     A.U. after    9 cycles
 SCF Done:  E(RHF) =  -492.859946975     A.U. after   10 cycles
 SCF Done:  E(RHF) =  -492.859949992     A.U. after   10 cycles
 SCF Done:  E(RHF) =  -492.859951714     A.U. after   10 cycles
 SCF Done:  E(RHF) =  -492.859952099     A.U. after    9 cycles
 SCF Done:  E(RHF) =  -492.859952372     A.U. after    9 cycles
 SCF Done:  E(RHF) =  -492.859952481     A.U. after    9 cycles
 SCF Done:  E(RHF) =  -492.859952485     A.U. after    7 cycles
 Optimization completed.
    -- Stationary point found.

                         Standard orientation:
 ---------------------------------------------------------------------
 Center     Atomic      Atomic             Coordinates (Angstroms)
 Number     Number       Type             X           Y           Z
 ---------------------------------------------------------------------
      1          1           0       -4.311935   -0.688508    0.142112
      2          6           0       -3.328147   -1.135077    0.114277
      3          1           0       -3.310547   -1.870998   -0.683761
      4          1           0       -3.128042   -1.641629    1.050961
      5          6           0       -2.308923   -0.058914   -0.190106
      6          8           0       -2.580920    0.911144   -0.846964
      7          7           0       -1.072814   -0.270562    0.317243
      8          1           0       -0.837655   -1.163439    0.691822
      9          6           0        0.046733    0.555448   -0.066233
     10          1           0       -0.084798    0.863140   -1.098280
     11          6           0        0.136532    1.809541    0.812647
     12          1           0        0.315081    1.537064    1.847087
     13          1           0        0.928753    2.477717    0.491951
     14          1           0       -0.800689    2.345767    0.749725
     15          6           0        1.308088   -0.306159    0.019440
     16          8           0        1.270258   -1.452532    0.385132
     17          7           0        2.460337    0.308723   -0.307281
     18          1           0        2.424744    1.216004   -0.709723
     19          6           0        3.719147   -0.407629   -0.332701
     20          1           0        3.849564   -0.952270    0.590860
     21          1           0        3.765237   -1.111590   -1.156077
     22          1           0        4.522357    0.309454   -0.435694
 ---------------------------------------------------------------------

 The electronic state is 1-A.
 Alpha  occ. eigenvalues --  -20.53718 -20.51719 -15.59605 -15.57542 -11.35598
 Alpha  occ. eigenvalues --  -11.34268 -11.28091 -11.26568 -11.22703 -11.22483
 Alpha  occ. eigenvalues --   -1.40658  -1.38471  -1.24430  -1.23336  -1.05585
 Alpha  occ. eigenvalues --   -0.99083  -0.96178  -0.88646  -0.80576  -0.78146
 Alpha  occ. eigenvalues --   -0.73146  -0.67434  -0.65824  -0.64912  -0.63399
 Alpha  occ. eigenvalues --   -0.61853  -0.59745  -0.58904  -0.56698  -0.56434
 Alpha  occ. eigenvalues --   -0.56148  -0.54508  -0.53195  -0.52406  -0.49280
 Alpha  occ. eigenvalues --   -0.42936  -0.41346  -0.40410  -0.38471
 Alpha virt. eigenvalues --    0.18872   0.20736   0.21377   0.24479   0.26018
 Alpha virt. eigenvalues --    0.28508   0.28819   0.30663   0.30964   0.31668
 Alpha virt. eigenvalues --    0.32787   0.32950   0.33536   0.35191   0.37767

 Mulliken atomic charges:
              1
     1  H    0.209621
     2  C   -0.581712
     3  H    0.199690
     4  H    0.179477
     5  C    0.744525
     6  O   -0.616930
     7  N   -0.807588
     8  H    0.420066
     9  C   -0.049036
    10  H    0.221038
    11  C   -0.475993
    12  H    0.174673
    13  H    0.147392
    14  H    0.212320
    15  C    0.774813
    16  O   -0.630654
    17  N   -0.797060
    18  H    0.390353
    19  C   -0.272747
    20  H    0.204507
    21  H    0.181590
    22  H    0.171655
 Sum of Mulliken atomic charges =   0.00000

 Dipole moment (field-independent basis, Debye):
    X=              2.8368    Y=              0.3788    Z=              0.2420  Tot=              2.8722
 Quadrupole moment (field-independent basis, Debye-Ang):
   XX=            -55.1026   YY=            -63.1277   ZZ=            -61.4122
   XY=             12.4322   XZ=             -7.7376   YZ=              1.7993

 Normal termination of Gaussian 09 at Fri Feb 10 10:00:21 2017.
