 Gaussian 09, Revision A.02,
 Gaussian 09:  EM64L-G09RevA.02 11-Jun-2009

 -------------------------------------------
 # HF/6-31G* Opt=(ModRedundant) geom=nocrowd
 -------------------------------------------

 ------------------
 Phi Psi fixed scan
 ------------------
 Symbolic Z-matrix:
 Charge =  0 Multiplicity = 1

 SCF Done:  E(RHF) =  -492.847209256     A.U. after   15 cycles
 SCF Done:  E(RHF) =  -492.854244685     A.U. after   14 cycles
 SCF Done:  E(RHF) =  -492.854894549     A.U. after   13 cycles
 SCF Done:  E(RHF) =  -492.855228488     A.U. after   13 cycles
 SCF Done:  E(RHF) =  -492.855527327     A.U. after   13 cycles
 SCF Done:  E(RHF) =  -492.855641234     A.U. after   13 cycles
 SCF Done:  E(RHF) =  -492.855629296     A.U. after   12 cycles
 SCF Done:  E(RHF) =  -492.855783656     A.U. after   13 cycles
 SCF Done:  E(RHF) =  -492.855817778     A.U. after   12 cycles
 SCF Done:  E(RHF) =  -492.855846143     A.U. after   12 cycles
 SCF Done:  E(RHF) =  -492.856098682     A.U. after   11 cycles
 SCF Done:  E(RHF) =  -492.856142848     A.U. after   12 cycles
 SCF Done:  E(RHF) =  -492.856126673     A.U. after   12 cycles
 SCF Done:  E(RHF) =  -492.856175203     A.U. after   11 cycles
 SCF Done:  E(RHF) =  -492.856201156     A.U. after   11 cycles
 SCF Done:  E(RHF) =  -492.856202522     A.U. after   10 cycles
 SCF Done:  E(RHF) =  -492.856202881     A.U. after    9 cycles
 SCF Done:  E(RHF) =  -492.856202936     A.U. after    8 cycles
 SCF Done:  E(RHF) =  -492.856202970     A.U. after    8 cycles
 SCF Done:  E(RHF) =  -492.856202973     A.U. after    6 cycles
 Optimization completed.
    -- Stationary point found.

                         Standard orientation:
 ---------------------------------------------------------------------
 Center     Atomic      Atomic             Coordinates (Angstroms)
 Number     Number       Type             X           Y           Z
 ---------------------------------------------------------------------
      1          1           0        3.842409   -1.576746   -0.273813
      2          6           0        3.078862   -1.063402   -0.839755
      3          1           0        2.575645   -1.763237   -1.497248
      4          1           0        3.556026   -0.304161   -1.452392
      5          6           0        2.120672   -0.394824    0.122130
      6          8           0        2.425297   -0.129905    1.250135
      7          7           0        0.884407   -0.123923   -0.389046
      8          1           0        0.782732   -0.189969   -1.378844
      9          6           0       -0.044805    0.763686    0.297684
     10          1           0        0.121897    0.611407    1.354889
     11          6           0        0.182484    2.230890   -0.046255
     12          1           0        0.037096    2.408748   -1.105359
     13          1           0       -0.513707    2.861642    0.491623
     14          1           0        1.192696    2.512868    0.227435
     15          6           0       -1.478191    0.322948   -0.021539
     16          8           0       -2.273325    1.057372   -0.540845
     17          7           0       -1.781065   -0.936417    0.355587
     18          1           0       -1.039520   -1.526931    0.653942
     19          6           0       -3.071599   -1.525254    0.072984
     20          1           0       -3.855686   -0.835200    0.348191
     21          1           0       -3.186212   -1.770712   -0.977972
     22          1           0       -3.177090   -2.429322    0.657952
 ---------------------------------------------------------------------

 The electronic state is 1-A.
 Alpha  occ. eigenvalues --  -20.53435 -20.52754 -15.59622 -15.58451 -11.35851
 Alpha  occ. eigenvalues --  -11.34528 -11.27855 -11.25899 -11.24129 -11.21455
 Alpha  occ. eigenvalues --   -1.40334  -1.39435  -1.25175  -1.22830  -1.05571
 Alpha  occ. eigenvalues --   -0.99675  -0.96401  -0.87635  -0.80120  -0.78835
 Alpha  occ. eigenvalues --   -0.73239  -0.67809  -0.65918  -0.65171  -0.62827
 Alpha  occ. eigenvalues --   -0.62095  -0.60199  -0.59288  -0.58070  -0.56305
 Alpha  occ. eigenvalues --   -0.55391  -0.53194  -0.52781  -0.52191  -0.50635
 Alpha  occ. eigenvalues --   -0.43034  -0.42849  -0.39923  -0.38588
 Alpha virt. eigenvalues --    0.19031   0.19294   0.21868   0.23570   0.26561
 Alpha virt. eigenvalues --    0.26936   0.27481   0.29824   0.30874   0.31816
 Alpha virt. eigenvalues --    0.32586   0.33070   0.33748   0.34381   0.37415

 Mulliken atomic charges:
              1
     1  H    0.217985
     2  C   -0.589615
     3  H    0.180283
     4  H    0.200180
     5  C    0.744049
     6  O   -0.594114
     7  N   -0.811711
     8  H    0.384770
     9  C   -0.072574
    10  H    0.240658
    11  C   -0.467085
    12  H    0.169196
    13  H    0.186839
    14  H    0.177690
    15  C    0.756306
    16  O   -0.608363
    17  N   -0.783852
    18  H    0.395105
    19  C   -0.272441
    20  H    0.204522
    21  H    0.172051
    22  H    0.170122
 Sum of Mulliken atomic charges =   0.00000

 Dipole moment (field-independent basis, Debye):
    X=              0.8253    Y=             -3.0030    Z=             -2.0884  Tot=              3.7497
 Quadrupole moment (field-independent basis, Debye-Ang):
   XX=            -66.3883   YY=            -57.9387   ZZ=            -62.0192
   XY=              5.7938   XZ=            -11.6425   YZ=              1.7812

 Normal termination of Gaussian 09 at Fri Feb 10 09:10:22 2017.
