 Gaussian 09, Revision A.02,
 Gaussian 09:  EM64L-G09RevA.02 11-Jun-2009

 -------------------------------------------
 # HF/6-31G* Opt=(ModRedundant) geom=nocrowd
 -------------------------------------------

 ------------------
 Phi Psi fixed scan
 ------------------
 Symbolic Z-matrix:
 Charge =  0 Multiplicity = 1

 SCF Done:  E(RHF) =  -492.836540915     A.U. after   15 cycles
 SCF Done:  E(RHF) =  -492.846552363     A.U. after   13 cycles
 SCF Done:  E(RHF) =  -492.848825522     A.U. after   13 cycles
 SCF Done:  E(RHF) =  -492.849142726     A.U. after   12 cycles
 SCF Done:  E(RHF) =  -492.849157232     A.U. after   12 cycles
 SCF Done:  E(RHF) =  -492.849236403     A.U. after   11 cycles
 SCF Done:  E(RHF) =  -492.849262010     A.U. after   12 cycles
 SCF Done:  E(RHF) =  -492.849308105     A.U. after   12 cycles
 SCF Done:  E(RHF) =  -492.849355132     A.U. after   12 cycles
 SCF Done:  E(RHF) =  -492.849383346     A.U. after   12 cycles
 SCF Done:  E(RHF) =  -492.849885605     A.U. after   11 cycles
 SCF Done:  E(RHF) =  -492.849932431     A.U. after   11 cycles
 SCF Done:  E(RHF) =  -492.849950371     A.U. after   12 cycles
 SCF Done:  E(RHF) =  -492.849955593     A.U. after   10 cycles
 SCF Done:  E(RHF) =  -492.849955634     A.U. after    8 cycles
 SCF Done:  E(RHF) =  -492.849955682     A.U. after    7 cycles
 SCF Done:  E(RHF) =  -492.849955713     A.U. after    7 cycles
 SCF Done:  E(RHF) =  -492.849955742     A.U. after    8 cycles
 SCF Done:  E(RHF) =  -492.849955808     A.U. after    9 cycles
 SCF Done:  E(RHF) =  -492.849955817     A.U. after    7 cycles
 Optimization completed.
    -- Stationary point found.

                         Standard orientation:
 ---------------------------------------------------------------------
 Center     Atomic      Atomic             Coordinates (Angstroms)
 Number     Number       Type             X           Y           Z
 ---------------------------------------------------------------------
      1          1           0        4.111107   -0.970010   -0.738364
      2          6           0        3.098766   -1.320901   -0.599358
      3          1           0        3.114219   -2.142898    0.109534
      4          1           0        2.707423   -1.689602   -1.540805
      5          6           0        2.264536   -0.195467   -0.026756
      6          8           0        2.744159    0.689270    0.626920
      7          7           0        0.935369   -0.266174   -0.288067
      8          1           0        0.585687   -1.064181   -0.766992
      9          6           0       -0.012825    0.646358    0.336184
     10          1           0        0.315709    0.818294    1.350098
     11          6           0       -0.074048    1.987795   -0.394542
     12          1           0       -0.290530    1.864775   -1.451647
     13          1           0       -0.823957    2.638519    0.045392
     14          1           0        0.888425    2.474502   -0.312792
     15          6           0       -1.345085   -0.099058    0.468727
     16          8           0       -1.570349   -0.786392    1.425839
     17          7           0       -2.208715    0.002774   -0.566070
     18          1           0       -2.051902    0.695692   -1.258617
     19          6           0       -3.513369   -0.624631   -0.511590
     20          1           0       -3.409059   -1.669216   -0.256673
     21          1           0       -4.154296   -0.156302    0.227109
     22          1           0       -3.977729   -0.543371   -1.485348
 ---------------------------------------------------------------------

 The electronic state is 1-A.
 Alpha  occ. eigenvalues --  -20.52925 -20.52358 -15.59431 -15.58982 -11.35018
 Alpha  occ. eigenvalues --  -11.34968 -11.27982 -11.26431 -11.23391 -11.22709
 Alpha  occ. eigenvalues --   -1.40012  -1.39137  -1.24640  -1.23403  -1.05800
 Alpha  occ. eigenvalues --   -0.99501  -0.96149  -0.89128  -0.79794  -0.79461
 Alpha  occ. eigenvalues --   -0.73275  -0.67374  -0.66434  -0.64636  -0.63001
 Alpha  occ. eigenvalues --   -0.62403  -0.59418  -0.58745  -0.57480  -0.56790
 Alpha  occ. eigenvalues --   -0.56104  -0.54858  -0.53618  -0.52150  -0.49886
 Alpha  occ. eigenvalues --   -0.43006  -0.41611  -0.39885  -0.38865
 Alpha virt. eigenvalues --    0.18631   0.20140   0.21739   0.22751   0.25733
 Alpha virt. eigenvalues --    0.27594   0.28112   0.30117   0.30627   0.31379
 Alpha virt. eigenvalues --    0.32790   0.33449   0.34171   0.34724   0.37542

 Mulliken atomic charges:
              1
     1  H    0.214083
     2  C   -0.584051
     3  H    0.205491
     4  H    0.172400
     5  C    0.753016
     6  O   -0.606018
     7  N   -0.813044
     8  H    0.390919
     9  C   -0.002546
    10  H    0.244014
    11  C   -0.510440
    12  H    0.146911
    13  H    0.169682
    14  H    0.221847
    15  C    0.713116
    16  O   -0.597346
    17  N   -0.793496
    18  H    0.396061
    19  C   -0.273871
    20  H    0.201479
    21  H    0.183070
    22  H    0.168723
 Sum of Mulliken atomic charges =   0.00000

 Dipole moment (field-independent basis, Debye):
    X=             -2.2298    Y=             -0.5232    Z=             -4.8129  Tot=              5.3301
 Quadrupole moment (field-independent basis, Debye-Ang):
   XX=            -60.8161   YY=            -58.8159   ZZ=            -63.8874
   XY=             -9.6303   XZ=              1.6467   YZ=              2.3009

 Normal termination of Gaussian 09 at Fri Feb 10 10:22:32 2017.
