 Gaussian 09, Revision A.02,
 Gaussian 09:  EM64L-G09RevA.02 11-Jun-2009

 -------------------------------------------
 # HF/6-31G* Opt=(ModRedundant) geom=nocrowd
 -------------------------------------------

 ------------------
 Phi Psi fixed scan
 ------------------
 Symbolic Z-matrix:
 Charge =  0 Multiplicity = 1

 SCF Done:  E(RHF) =  -492.843589012     A.U. after   15 cycles
 SCF Done:  E(RHF) =  -492.851319907     A.U. after   14 cycles
 SCF Done:  E(RHF) =  -492.854138076     A.U. after   13 cycles
 SCF Done:  E(RHF) =  -492.855414489     A.U. after   16 cycles
 SCF Done:  E(RHF) =  -492.855819776     A.U. after   14 cycles
 SCF Done:  E(RHF) =  -492.856216639     A.U. after   12 cycles
 SCF Done:  E(RHF) =  -492.856254075     A.U. after   12 cycles
 SCF Done:  E(RHF) =  -492.856304797     A.U. after   12 cycles
 SCF Done:  E(RHF) =  -492.856367665     A.U. after   11 cycles
 SCF Done:  E(RHF) =  -492.856500489     A.U. after   12 cycles
 SCF Done:  E(RHF) =  -492.856677526     A.U. after   12 cycles
 SCF Done:  E(RHF) =  -492.856793666     A.U. after   12 cycles
 SCF Done:  E(RHF) =  -492.856834433     A.U. after   11 cycles
 SCF Done:  E(RHF) =  -492.856852120     A.U. after   11 cycles
 SCF Done:  E(RHF) =  -492.856857685     A.U. after   11 cycles
 SCF Done:  E(RHF) =  -492.856861736     A.U. after   10 cycles
 SCF Done:  E(RHF) =  -492.856868380     A.U. after   11 cycles
 SCF Done:  E(RHF) =  -492.856871981     A.U. after   11 cycles
 SCF Done:  E(RHF) =  -492.856873466     A.U. after    9 cycles
 SCF Done:  E(RHF) =  -492.856873600     A.U. after    8 cycles
 Optimization completed.
    -- Stationary point found.

                         Standard orientation:
 ---------------------------------------------------------------------
 Center     Atomic      Atomic             Coordinates (Angstroms)
 Number     Number       Type             X           Y           Z
 ---------------------------------------------------------------------
      1          1           0        3.917021   -1.491741    0.063068
      2          6           0        3.095705   -1.202567   -0.575999
      3          1           0        2.602728   -2.086874   -0.963885
      4          1           0        3.493204   -0.639856   -1.415708
      5          6           0        2.147650   -0.322769    0.209800
      6          8           0        2.483995    0.256245    1.201531
      7          7           0        0.876785   -0.248697   -0.295012
      8          1           0        0.766895   -0.548922   -1.240292
      9          6           0       -0.042528    0.788975    0.148501
     10          1           0        0.177366    0.958567    1.193846
     11          6           0        0.141685    2.101151   -0.613485
     12          1           0       -0.037155    1.961137   -1.675919
     13          1           0       -0.551288    2.846969   -0.251723
     14          1           0        1.154528    2.461534   -0.476432
     15          6           0       -1.500141    0.327051    0.090843
     16          8           0       -2.393757    1.126717    0.158235
     17          7           0       -1.714125   -0.999482   -0.039733
     18          1           0       -0.941773   -1.605023    0.114410
     19          6           0       -3.051790   -1.544803    0.056987
     20          1           0       -3.714610   -0.996318   -0.595521
     21          1           0       -3.027998   -2.581082   -0.253987
     22          1           0       -3.442927   -1.487072    1.067348
 ---------------------------------------------------------------------

 The electronic state is 1-A.
 Alpha  occ. eigenvalues --  -20.53752 -20.52307 -15.59689 -15.58604 -11.36038
 Alpha  occ. eigenvalues --  -11.34537 -11.27918 -11.25859 -11.24312 -11.21835
 Alpha  occ. eigenvalues --   -1.40589  -1.39259  -1.25529  -1.22711  -1.05656
 Alpha  occ. eigenvalues --   -0.99831  -0.96334  -0.87882  -0.80269  -0.78771
 Alpha  occ. eigenvalues --   -0.73537  -0.68069  -0.66058  -0.64354  -0.62975
 Alpha  occ. eigenvalues --   -0.62520  -0.59786  -0.59465  -0.58362  -0.56514
 Alpha  occ. eigenvalues --   -0.55428  -0.54175  -0.52629  -0.52278  -0.49979
 Alpha  occ. eigenvalues --   -0.43194  -0.43050  -0.39743  -0.39022
 Alpha virt. eigenvalues --    0.18695   0.19428   0.21361   0.24519   0.26723
 Alpha virt. eigenvalues --    0.27365   0.28311   0.29634   0.30042   0.31690
 Alpha virt. eigenvalues --    0.32377   0.33338   0.33550   0.34439   0.37268

 Mulliken atomic charges:
              1
     1  H    0.219936
     2  C   -0.590725
     3  H    0.179592
     4  H    0.198679
     5  C    0.744793
     6  O   -0.585805
     7  N   -0.827644
     8  H    0.380156
     9  C   -0.059500
    10  H    0.254737
    11  C   -0.483630
    12  H    0.153796
    13  H    0.210829
    14  H    0.181828
    15  C    0.763473
    16  O   -0.616897
    17  N   -0.796684
    18  H    0.398029
    19  C   -0.274718
    20  H    0.204482
    21  H    0.166978
    22  H    0.178297
 Sum of Mulliken atomic charges =   0.00000

 Dipole moment (field-independent basis, Debye):
    X=              1.1143    Y=             -3.9525    Z=             -3.0547  Tot=              5.1182
 Quadrupole moment (field-independent basis, Debye-Ang):
   XX=            -67.9355   YY=            -58.0153   ZZ=            -61.5724
   XY=              4.1198   XZ=             -7.4670   YZ=             -0.7784

 Normal termination of Gaussian 09 at Fri Feb 10 08:57:35 2017.
