 Gaussian 09, Revision A.02,
 Gaussian 09:  EM64L-G09RevA.02 11-Jun-2009

 -------------------------------------------
 # HF/6-31G* Opt=(ModRedundant) geom=nocrowd
 -------------------------------------------

 ------------------
 Phi Psi fixed scan
 ------------------
 Symbolic Z-matrix:
 Charge =  0 Multiplicity = 1

 SCF Done:  E(RHF) =  -492.846930765     A.U. after   15 cycles
 SCF Done:  E(RHF) =  -492.854147148     A.U. after   16 cycles
 SCF Done:  E(RHF) =  -492.855515720     A.U. after   13 cycles
 SCF Done:  E(RHF) =  -492.856076379     A.U. after   13 cycles
 SCF Done:  E(RHF) =  -492.856435645     A.U. after   13 cycles
 SCF Done:  E(RHF) =  -492.856623981     A.U. after   12 cycles
 SCF Done:  E(RHF) =  -492.856600496     A.U. after   12 cycles
 SCF Done:  E(RHF) =  -492.856710408     A.U. after   11 cycles
 SCF Done:  E(RHF) =  -492.856741294     A.U. after   11 cycles
 SCF Done:  E(RHF) =  -492.856827449     A.U. after   11 cycles
 SCF Done:  E(RHF) =  -492.857083440     A.U. after   11 cycles
 SCF Done:  E(RHF) =  -492.857106376     A.U. after   11 cycles
 SCF Done:  E(RHF) =  -492.857130920     A.U. after   11 cycles
 SCF Done:  E(RHF) =  -492.857164207     A.U. after   12 cycles
 SCF Done:  E(RHF) =  -492.857178669     A.U. after   11 cycles
 SCF Done:  E(RHF) =  -492.857181792     A.U. after   11 cycles
 SCF Done:  E(RHF) =  -492.857182453     A.U. after    9 cycles
 SCF Done:  E(RHF) =  -492.857182714     A.U. after    9 cycles
 SCF Done:  E(RHF) =  -492.857182721     A.U. after    7 cycles
 SCF Done:  E(RHF) =  -492.857182723     A.U. after    6 cycles
 Optimization completed.
    -- Stationary point found.

                         Standard orientation:
 ---------------------------------------------------------------------
 Center     Atomic      Atomic             Coordinates (Angstroms)
 Number     Number       Type             X           Y           Z
 ---------------------------------------------------------------------
      1          1           0        3.878711   -1.540949   -0.039439
      2          6           0        3.088080   -1.159027   -0.668552
      3          1           0        2.589130   -1.980006   -1.171023
      4          1           0        3.529510   -0.516139   -1.424457
      5          6           0        2.134667   -0.345701    0.179967
      6          8           0        2.457362    0.127877    1.231301
      7          7           0        0.879268   -0.199248   -0.340257
      8          1           0        0.766645   -0.432925   -1.303198
      9          6           0       -0.048117    0.786821    0.194263
     10          1           0        0.142166    0.830809    1.258802
     11          6           0        0.161499    2.175160   -0.405007
     12          1           0        0.003066    2.162329   -1.478975
     13          1           0       -0.532953    2.882691    0.025022
     14          1           0        1.173961    2.505772   -0.204623
     15          6           0       -1.499084    0.324212    0.034072
     16          8           0       -2.395012    1.116424   -0.076045
     17          7           0       -1.702506   -1.008582    0.058437
     18          1           0       -0.930457   -1.594973    0.273892
     19          6           0       -3.038931   -1.562549    0.087330
     20          1           0       -3.638251   -1.114038   -0.691473
     21          1           0       -2.977024   -2.629022   -0.085081
     22          1           0       -3.529316   -1.386647    1.038799
 ---------------------------------------------------------------------

 The electronic state is 1-A.
 Alpha  occ. eigenvalues --  -20.53595 -20.52395 -15.59669 -15.58539 -11.35962
 Alpha  occ. eigenvalues --  -11.34519 -11.27934 -11.25901 -11.24252 -11.21577
 Alpha  occ. eigenvalues --   -1.40466  -1.39276  -1.25448  -1.22706  -1.05609
 Alpha  occ. eigenvalues --   -0.99748  -0.96402  -0.87755  -0.80249  -0.78849
 Alpha  occ. eigenvalues --   -0.73488  -0.67984  -0.65993  -0.64685  -0.62896
 Alpha  occ. eigenvalues --   -0.62353  -0.59938  -0.59440  -0.58237  -0.56279
 Alpha  occ. eigenvalues --   -0.55490  -0.53839  -0.52537  -0.52273  -0.50172
 Alpha  occ. eigenvalues --   -0.43085  -0.42857  -0.39928  -0.38726
 Alpha virt. eigenvalues --    0.18747   0.19414   0.21795   0.24152   0.26759
 Alpha virt. eigenvalues --    0.27315   0.27959   0.29665   0.30107   0.31722
 Alpha virt. eigenvalues --    0.32513   0.33306   0.33719   0.34321   0.37385

 Mulliken atomic charges:
              1
     1  H    0.219031
     2  C   -0.589871
     3  H    0.178868
     4  H    0.199957
     5  C    0.745399
     6  O   -0.589845
     7  N   -0.824635
     8  H    0.382215
     9  C   -0.064819
    10  H    0.250374
    11  C   -0.474903
    12  H    0.156363
    13  H    0.204408
    14  H    0.180028
    15  C    0.760296
    16  O   -0.616151
    17  N   -0.791830
    18  H    0.398485
    19  C   -0.271598
    20  H    0.202088
    21  H    0.166947
    22  H    0.179193
 Sum of Mulliken atomic charges =   0.00000

 Dipole moment (field-independent basis, Debye):
    X=              1.0786    Y=             -3.7004    Z=             -2.7140  Tot=              4.7140
 Quadrupole moment (field-independent basis, Debye-Ang):
   XX=            -67.9198   YY=            -57.9991   ZZ=            -61.3890
   XY=              4.8633   XZ=             -9.0267   YZ=              0.0974

 Normal termination of Gaussian 09 at Fri Feb 10 09:00:15 2017.
