 Gaussian 09, Revision A.02,
 Gaussian 09:  EM64L-G09RevA.02 11-Jun-2009

 -------------------------------------------
 # HF/6-31G* Opt=(ModRedundant) geom=nocrowd
 -------------------------------------------

 ------------------
 Phi Psi fixed scan
 ------------------
 Symbolic Z-matrix:
 Charge =  0 Multiplicity = 1

 SCF Done:  E(RHF) =  -492.845989300     A.U. after   15 cycles
 SCF Done:  E(RHF) =  -492.853928213     A.U. after   14 cycles
 SCF Done:  E(RHF) =  -492.856109334     A.U. after   13 cycles
 SCF Done:  E(RHF) =  -492.857020472     A.U. after   13 cycles
 SCF Done:  E(RHF) =  -492.857325118     A.U. after   14 cycles
 SCF Done:  E(RHF) =  -492.857812032     A.U. after   13 cycles
 SCF Done:  E(RHF) =  -492.857895895     A.U. after   13 cycles
 SCF Done:  E(RHF) =  -492.857950180     A.U. after   12 cycles
 SCF Done:  E(RHF) =  -492.857970199     A.U. after   11 cycles
 SCF Done:  E(RHF) =  -492.857979215     A.U. after   10 cycles
 SCF Done:  E(RHF) =  -492.858382454     A.U. after   11 cycles
 SCF Done:  E(RHF) =  -492.858399119     A.U. after   11 cycles
 SCF Done:  E(RHF) =  -492.858414514     A.U. after   11 cycles
 SCF Done:  E(RHF) =  -492.858430907     A.U. after   11 cycles
 SCF Done:  E(RHF) =  -492.858447115     A.U. after   11 cycles
 SCF Done:  E(RHF) =  -492.858453211     A.U. after   10 cycles
 SCF Done:  E(RHF) =  -492.858457956     A.U. after    9 cycles
 SCF Done:  E(RHF) =  -492.858462648     A.U. after   10 cycles
 SCF Done:  E(RHF) =  -492.858465530     A.U. after   10 cycles
 SCF Done:  E(RHF) =  -492.858465700     A.U. after    9 cycles
 Optimization completed.
    -- Stationary point found.

                         Standard orientation:
 ---------------------------------------------------------------------
 Center     Atomic      Atomic             Coordinates (Angstroms)
 Number     Number       Type             X           Y           Z
 ---------------------------------------------------------------------
      1          1           0       -4.311535   -0.724413    0.170096
      2          6           0       -3.314675   -1.138283    0.217975
      3          1           0       -3.239476   -1.942018   -0.508434
      4          1           0       -3.134784   -1.553215    1.202811
      5          6           0       -2.315013   -0.058428   -0.134130
      6          8           0       -2.612965    0.903068   -0.790512
      7          7           0       -1.059868   -0.256961    0.341235
      8          1           0       -0.809548   -1.172131    0.647382
      9          6           0        0.043943    0.547352   -0.133860
     10          1           0       -0.116060    0.781967   -1.182389
     11          6           0        0.136853    1.861037    0.649728
     12          1           0        0.387487    1.674877    1.688165
     13          1           0        0.873060    2.539999    0.230975
     14          1           0       -0.822705    2.356879    0.605234
     15          6           0        1.304858   -0.319356   -0.052747
     16          8           0        1.236583   -1.511552    0.104435
     17          7           0        2.483069    0.322029   -0.149759
     18          1           0        2.494509    1.291524   -0.359568
     19          6           0        3.735357   -0.405861   -0.180213
     20          1           0        3.790494   -1.081836    0.660760
     21          1           0        3.841288   -0.982994   -1.091616
     22          1           0        4.547989    0.304983   -0.115647
 ---------------------------------------------------------------------

 The electronic state is 1-A.
 Alpha  occ. eigenvalues --  -20.53581 -20.51986 -15.59620 -15.57487 -11.35599
 Alpha  occ. eigenvalues --  -11.34306 -11.28126 -11.26558 -11.22714 -11.22536
 Alpha  occ. eigenvalues --   -1.40605  -1.38651  -1.24413  -1.23305  -1.05555
 Alpha  occ. eigenvalues --   -0.99101  -0.96103  -0.88822  -0.80553  -0.77914
 Alpha  occ. eigenvalues --   -0.73156  -0.67381  -0.65851  -0.65312  -0.63177
 Alpha  occ. eigenvalues --   -0.61874  -0.59578  -0.58954  -0.56648  -0.56400
 Alpha  occ. eigenvalues --   -0.55984  -0.54527  -0.53444  -0.52465  -0.49287
 Alpha  occ. eigenvalues --   -0.42826  -0.41475  -0.40298  -0.38780
 Alpha virt. eigenvalues --    0.19021   0.20584   0.21372   0.24573   0.25916
 Alpha virt. eigenvalues --    0.28532   0.28894   0.30217   0.31143   0.31892
 Alpha virt. eigenvalues --    0.32481   0.33177   0.33982   0.35048   0.38350

 Mulliken atomic charges:
              1
     1  H    0.210636
     2  C   -0.584823
     3  H    0.198800
     4  H    0.183020
     5  C    0.738441
     6  O   -0.611704
     7  N   -0.799180
     8  H    0.417608
     9  C   -0.046805
    10  H    0.225400
    11  C   -0.484676
    12  H    0.174588
    13  H    0.141499
    14  H    0.218372
    15  C    0.772301
    16  O   -0.631923
    17  N   -0.801209
    18  H    0.394516
    19  C   -0.271768
    20  H    0.202770
    21  H    0.183216
    22  H    0.170922
 Sum of Mulliken atomic charges =   0.00000

 Dipole moment (field-independent basis, Debye):
    X=              2.9540    Y=              0.5527    Z=              0.7809  Tot=              3.1050
 Quadrupole moment (field-independent basis, Debye-Ang):
   XX=            -54.7883   YY=            -63.1660   ZZ=            -61.5054
   XY=             12.6997   XZ=             -6.1545   YZ=              0.9910

 Normal termination of Gaussian 09 at Fri Feb 10 10:03:30 2017.
