 Gaussian 09, Revision A.02,
 Gaussian 09:  EM64L-G09RevA.02 11-Jun-2009

 -------------------------------------------
 # HF/6-31G* Opt=(ModRedundant) geom=nocrowd
 -------------------------------------------

 ------------------
 Phi Psi fixed scan
 ------------------
 Symbolic Z-matrix:
 Charge =  0 Multiplicity = 1

 SCF Done:  E(RHF) =  -492.840610189     A.U. after   15 cycles
 SCF Done:  E(RHF) =  -492.850319581     A.U. after   13 cycles
 SCF Done:  E(RHF) =  -492.853403928     A.U. after   13 cycles
 SCF Done:  E(RHF) =  -492.854511956     A.U. after   13 cycles
 SCF Done:  E(RHF) =  -492.855317901     A.U. after   14 cycles
 SCF Done:  E(RHF) =  -492.855872422     A.U. after   13 cycles
 SCF Done:  E(RHF) =  -492.856128888     A.U. after   12 cycles
 SCF Done:  E(RHF) =  -492.856082702     A.U. after   12 cycles
 SCF Done:  E(RHF) =  -492.856193667     A.U. after   11 cycles
 SCF Done:  E(RHF) =  -492.856203672     A.U. after    9 cycles
 SCF Done:  E(RHF) =  -492.856473500     A.U. after   11 cycles
 SCF Done:  E(RHF) =  -492.856191220     A.U. after   14 cycles
 SCF Done:  E(RHF) =  -492.856632724     A.U. after   12 cycles
 SCF Done:  E(RHF) =  -492.856661600     A.U. after   11 cycles
 SCF Done:  E(RHF) =  -492.856676286     A.U. after   11 cycles
 SCF Done:  E(RHF) =  -492.856680600     A.U. after   11 cycles
 SCF Done:  E(RHF) =  -492.856682387     A.U. after   10 cycles
 SCF Done:  E(RHF) =  -492.856684068     A.U. after   11 cycles
 SCF Done:  E(RHF) =  -492.856684237     A.U. after   10 cycles
 SCF Done:  E(RHF) =  -492.856684261     A.U. after    8 cycles
 Optimization completed.
    -- Stationary point found.

                         Standard orientation:
 ---------------------------------------------------------------------
 Center     Atomic      Atomic             Coordinates (Angstroms)
 Number     Number       Type             X           Y           Z
 ---------------------------------------------------------------------
      1          1           0       -4.293852   -0.768467    0.264372
      2          6           0       -3.286298   -1.150627    0.340069
      3          1           0       -3.184321   -1.997843   -0.331753
      4          1           0       -3.097419   -1.495499    1.350083
      5          6           0       -2.314674   -0.067152   -0.073656
      6          8           0       -2.648141    0.878694   -0.733817
      7          7           0       -1.037185   -0.243836    0.359655
      8          1           0       -0.774960   -1.169018    0.623475
      9          6           0        0.038963    0.545763   -0.206699
     10          1           0       -0.160470    0.709457   -1.262255
     11          6           0        0.134386    1.908704    0.482008
     12          1           0        0.432273    1.803930    1.519716
     13          1           0        0.832670    2.570384   -0.022762
     14          1           0       -0.836209    2.382336    0.445687
     15          6           0        1.304495   -0.316883   -0.139370
     16          8           0        1.230439   -1.518397   -0.195156
     17          7           0        2.480405    0.317927   -0.007254
     18          1           0        2.506841    1.308225    0.021309
     19          6           0        3.731213   -0.413118   -0.007580
     20          1           0        3.731586   -1.162015    0.772463
     21          1           0        3.897429   -0.908009   -0.956479
     22          1           0        4.537006    0.285384    0.172489
 ---------------------------------------------------------------------

 The electronic state is 1-A.
 Alpha  occ. eigenvalues --  -20.53272 -20.52258 -15.59663 -15.57614 -11.35493
 Alpha  occ. eigenvalues --  -11.34408 -11.28104 -11.26562 -11.22785 -11.22551
 Alpha  occ. eigenvalues --   -1.40414  -1.38851  -1.24386  -1.23340  -1.05565
 Alpha  occ. eigenvalues --   -0.99160  -0.96092  -0.88955  -0.80484  -0.77842
 Alpha  occ. eigenvalues --   -0.73153  -0.67364  -0.66053  -0.65353  -0.62967
 Alpha  occ. eigenvalues --   -0.61952  -0.59463  -0.58938  -0.56758  -0.56242
 Alpha  occ. eigenvalues --   -0.55921  -0.54488  -0.53698  -0.52573  -0.49347
 Alpha  occ. eigenvalues --   -0.42627  -0.41613  -0.40062  -0.39135
 Alpha virt. eigenvalues --    0.19194   0.20383   0.21557   0.24488   0.25871
 Alpha virt. eigenvalues --    0.28381   0.28867   0.29790   0.31282   0.32069
 Alpha virt. eigenvalues --    0.32278   0.33350   0.34061   0.34960   0.37830

 Mulliken atomic charges:
              1
     1  H    0.211573
     2  C   -0.586967
     3  H    0.198911
     4  H    0.185045
     5  C    0.734982
     6  O   -0.606731
     7  N   -0.792567
     8  H    0.411699
     9  C   -0.032671
    10  H    0.226924
    11  C   -0.504335
    12  H    0.172811
    13  H    0.144931
    14  H    0.225176
    15  C    0.762888
    16  O   -0.631774
    17  N   -0.806338
    18  H    0.400435
    19  C   -0.269704
    20  H    0.197356
    21  H    0.188486
    22  H    0.169869
 Sum of Mulliken atomic charges =   0.00000

 Dipole moment (field-independent basis, Debye):
    X=              2.9841    Y=              0.6747    Z=              1.5039  Tot=              3.4091
 Quadrupole moment (field-independent basis, Debye-Ang):
   XX=            -54.8366   YY=            -62.9758   ZZ=            -61.6279
   XY=             12.7528   XZ=             -4.3184   YZ=              0.1515

 Normal termination of Gaussian 09 at Fri Feb 10 10:07:15 2017.
