 Gaussian 09, Revision A.02,
 Gaussian 09:  EM64L-G09RevA.02 11-Jun-2009

 -------------------------------------------
 # HF/6-31G* Opt=(ModRedundant) geom=nocrowd
 -------------------------------------------

 ------------------
 Phi Psi fixed scan
 ------------------
 Symbolic Z-matrix:
 Charge =  0 Multiplicity = 1

 SCF Done:  E(RHF) =  -492.854317222     A.U. after   15 cycles
 SCF Done:  E(RHF) =  -492.859859767     A.U. after   13 cycles
 SCF Done:  E(RHF) =  -492.860062661     A.U. after   13 cycles
 SCF Done:  E(RHF) =  -492.860261372     A.U. after   12 cycles
 SCF Done:  E(RHF) =  -492.860321590     A.U. after   12 cycles
 SCF Done:  E(RHF) =  -492.860317892     A.U. after   10 cycles
 SCF Done:  E(RHF) =  -492.860334391     A.U. after    9 cycles
 SCF Done:  E(RHF) =  -492.860335875     A.U. after    9 cycles
 SCF Done:  E(RHF) =  -492.860336300     A.U. after    9 cycles
 SCF Done:  E(RHF) =  -492.860336496     A.U. after    8 cycles
 SCF Done:  E(RHF) =  -492.860665021     A.U. after   11 cycles
 SCF Done:  E(RHF) =  -492.860664974     A.U. after   11 cycles
 SCF Done:  E(RHF) =  -492.860662585     A.U. after   11 cycles
 SCF Done:  E(RHF) =  -492.860673337     A.U. after   11 cycles
 SCF Done:  E(RHF) =  -492.860673536     A.U. after    8 cycles
 SCF Done:  E(RHF) =  -492.860673563     A.U. after    8 cycles
 SCF Done:  E(RHF) =  -492.860673578     A.U. after    6 cycles
 SCF Done:  E(RHF) =  -492.860673642     A.U. after    8 cycles
 SCF Done:  E(RHF) =  -492.860673708     A.U. after    8 cycles
 SCF Done:  E(RHF) =  -492.860673711     A.U. after    7 cycles
 Optimization completed.
    -- Stationary point found.

                         Standard orientation:
 ---------------------------------------------------------------------
 Center     Atomic      Atomic             Coordinates (Angstroms)
 Number     Number       Type             X           Y           Z
 ---------------------------------------------------------------------
      1          1           0       -3.865034   -1.416679   -0.828989
      2          6           0       -3.319426   -1.147134    0.065441
      3          1           0       -2.907163   -2.038636    0.522163
      4          1           0       -4.020091   -0.692616    0.757542
      5          6           0       -2.268508   -0.121038   -0.299043
      6          8           0       -2.513087    0.797582   -1.037311
      7          7           0       -1.059200   -0.291280    0.273577
      8          1           0       -0.872456   -1.073141    0.860316
      9          6           0        0.048066    0.598437    0.019594
     10          1           0       -0.054952    0.970610   -0.990843
     11          6           0        0.073449    1.786460    0.988965
     12          1           0        0.168671    1.436910    2.010945
     13          1           0        0.903783    2.451396    0.772806
     14          1           0       -0.848837    2.345303    0.892789
     15          6           0        1.330410   -0.215875    0.153238
     16          8           0        1.406182   -1.136954    0.925343
     17          7           0        2.363868    0.187765   -0.606245
     18          1           0        2.210317    0.884417   -1.297428
     19          6           0        3.647305   -0.482124   -0.564269
     20          1           0        3.970773   -0.597324    0.460221
     21          1           0        3.599606   -1.463709   -1.021522
     22          1           0        4.370171    0.120693   -1.097136
 ---------------------------------------------------------------------

 The electronic state is 1-A.
 Alpha  occ. eigenvalues --  -20.53324 -20.51492 -15.59674 -15.57983 -11.35304
 Alpha  occ. eigenvalues --  -11.34403 -11.27982 -11.26537 -11.22838 -11.22383
 Alpha  occ. eigenvalues --   -1.40306  -1.38371  -1.24387  -1.23518  -1.05620
 Alpha  occ. eigenvalues --   -0.99117  -0.96479  -0.88363  -0.80560  -0.78743
 Alpha  occ. eigenvalues --   -0.73145  -0.67362  -0.65783  -0.64312  -0.63470
 Alpha  occ. eigenvalues --   -0.61962  -0.60109  -0.58664  -0.57174  -0.56529
 Alpha  occ. eigenvalues --   -0.56233  -0.54261  -0.52712  -0.52272  -0.49541
 Alpha  occ. eigenvalues --   -0.42950  -0.41293  -0.40175  -0.38234
 Alpha virt. eigenvalues --    0.18803   0.21162   0.21404   0.23893   0.26166
 Alpha virt. eigenvalues --    0.27718   0.28761   0.30331   0.31279   0.32142
 Alpha virt. eigenvalues --    0.32572   0.33362   0.33678   0.35293   0.37143

 Mulliken atomic charges:
              1
     1  H    0.207675
     2  C   -0.576058
     3  H    0.173208
     4  H    0.202975
     5  C    0.754505
     6  O   -0.622404
     7  N   -0.817730
     8  H    0.415215
     9  C   -0.035602
    10  H    0.216250
    11  C   -0.483302
    12  H    0.180818
    13  H    0.161290
    14  H    0.202851
    15  C    0.774771
    16  O   -0.632263
    17  N   -0.798386
    18  H    0.390606
    19  C   -0.272857
    20  H    0.202609
    21  H    0.184308
    22  H    0.171521
 Sum of Mulliken atomic charges =   0.00000

 Dipole moment (field-independent basis, Debye):
    X=              2.3162    Y=              0.0716    Z=             -0.3184  Tot=              2.3391
 Quadrupole moment (field-independent basis, Debye-Ang):
   XX=            -55.7764   YY=            -61.8322   ZZ=            -62.2037
   XY=             10.6453   XZ=            -11.4633   YZ=              3.0226

 Normal termination of Gaussian 09 at Fri Feb 10 09:43:58 2017.
