 Gaussian 09, Revision A.02,
 Gaussian 09:  EM64L-G09RevA.02 11-Jun-2009

 -------------------------------------------
 # HF/6-31G* Opt=(ModRedundant) geom=nocrowd
 -------------------------------------------

 ------------------
 Phi Psi fixed scan
 ------------------
 Symbolic Z-matrix:
 Charge =  0 Multiplicity = 1

 SCF Done:  E(RHF) =  -492.850031770     A.U. after   15 cycles
 SCF Done:  E(RHF) =  -492.856493537     A.U. after   14 cycles
 SCF Done:  E(RHF) =  -492.857010766     A.U. after   13 cycles
 SCF Done:  E(RHF) =  -492.857114649     A.U. after   13 cycles
 SCF Done:  E(RHF) =  -492.857278404     A.U. after   13 cycles
 SCF Done:  E(RHF) =  -492.857354179     A.U. after   12 cycles
 SCF Done:  E(RHF) =  -492.857393093     A.U. after   13 cycles
 SCF Done:  E(RHF) =  -492.857413811     A.U. after   12 cycles
 SCF Done:  E(RHF) =  -492.857423249     A.U. after   11 cycles
 SCF Done:  E(RHF) =  -492.857446611     A.U. after   11 cycles
 SCF Done:  E(RHF) =  -492.857711663     A.U. after   11 cycles
 SCF Done:  E(RHF) =  -492.857742424     A.U. after   11 cycles
 SCF Done:  E(RHF) =  -492.857770794     A.U. after   11 cycles
 SCF Done:  E(RHF) =  -492.857787434     A.U. after   12 cycles
 SCF Done:  E(RHF) =  -492.857785832     A.U. after   11 cycles
 SCF Done:  E(RHF) =  -492.857791593     A.U. after   11 cycles
 SCF Done:  E(RHF) =  -492.857792550     A.U. after   11 cycles
 SCF Done:  E(RHF) =  -492.857792733     A.U. after    9 cycles
 SCF Done:  E(RHF) =  -492.857792765     A.U. after    8 cycles
 SCF Done:  E(RHF) =  -492.857792770     A.U. after    7 cycles
 Optimization completed.
    -- Stationary point found.

                         Standard orientation:
 ---------------------------------------------------------------------
 Center     Atomic      Atomic             Coordinates (Angstroms)
 Number     Number       Type             X           Y           Z
 ---------------------------------------------------------------------
      1          1           0       -3.833807   -1.650500    0.292313
      2          6           0       -3.150220   -1.014238    0.835839
      3          1           0       -2.668230   -1.581433    1.623562
      4          1           0       -3.720878   -0.211208    1.292406
      5          6           0       -2.156614   -0.418811   -0.138053
      6          8           0       -2.420200   -0.251843   -1.297531
      7          7           0       -0.954146   -0.084997    0.395302
      8          1           0       -0.842599   -0.108313    1.385119
      9          6           0        0.037471    0.673016   -0.347418
     10          1           0       -0.080939    0.398627   -1.384987
     11          6           0       -0.136558    2.181878   -0.197295
     12          1           0       -0.029166    2.474788    0.839451
     13          1           0        0.609813    2.713994   -0.779109
     14          1           0       -1.117943    2.472016   -0.553517
     15          6           0        1.397242    0.221128    0.179257
     16          8           0        1.776887    0.557752    1.270779
     17          7           0        2.102642   -0.596581   -0.622200
     18          1           0        1.682918   -0.922720   -1.461239
     19          6           0        3.353869   -1.186089   -0.195005
     20          1           0        3.993554   -0.423821    0.225393
     21          1           0        3.199693   -1.955396    0.553627
     22          1           0        3.843484   -1.623558   -1.054662
 ---------------------------------------------------------------------

 The electronic state is 1-A.
 Alpha  occ. eigenvalues --  -20.52753 -20.52498 -15.59290 -15.58842 -11.35138
 Alpha  occ. eigenvalues --  -11.34794 -11.27847 -11.26209 -11.23444 -11.21776
 Alpha  occ. eigenvalues --   -1.39867  -1.39149  -1.24412  -1.23571  -1.05515
 Alpha  occ. eigenvalues --   -0.99347  -0.96575  -0.87952  -0.79956  -0.79290
 Alpha  occ. eigenvalues --   -0.73084  -0.67318  -0.65772  -0.64812  -0.62799
 Alpha  occ. eigenvalues --   -0.62314  -0.60180  -0.58683  -0.57754  -0.56731
 Alpha  occ. eigenvalues --   -0.55806  -0.53671  -0.52500  -0.51739  -0.50495
 Alpha  occ. eigenvalues --   -0.42836  -0.42093  -0.39559  -0.38808
 Alpha virt. eigenvalues --    0.18911   0.21237   0.21628   0.22740   0.26272
 Alpha virt. eigenvalues --    0.27405   0.28386   0.30406   0.30901   0.32261
 Alpha virt. eigenvalues --    0.32322   0.33003   0.33770   0.35583   0.37594

 Mulliken atomic charges:
              1
     1  H    0.213796
     2  C   -0.585622
     3  H    0.179432
     4  H    0.200285
     5  C    0.750541
     6  O   -0.608746
     7  N   -0.810269
     8  H    0.398307
     9  C   -0.044159
    10  H    0.222222
    11  C   -0.487301
    12  H    0.189127
    13  H    0.167965
    14  H    0.186816
    15  C    0.775829
    16  O   -0.626863
    17  N   -0.795137
    18  H    0.393341
    19  C   -0.274953
    20  H    0.204444
    21  H    0.179847
    22  H    0.171099
 Sum of Mulliken atomic charges =   0.00000

 Dipole moment (field-independent basis, Debye):
    X=              0.7595    Y=             -1.6059    Z=              0.1753  Tot=              1.7851
 Quadrupole moment (field-independent basis, Debye-Ang):
   XX=            -60.1634   YY=            -57.9218   ZZ=            -64.1463
   XY=             -3.9047   XZ=            -15.3721   YZ=             -1.5729

 Normal termination of Gaussian 09 at Fri Feb 10 09:19:42 2017.
