 Gaussian 09, Revision A.02,
 Gaussian 09:  EM64L-G09RevA.02 11-Jun-2009

 -------------------------------------------
 # HF/6-31G* Opt=(ModRedundant) geom=nocrowd
 -------------------------------------------

 ------------------
 Phi Psi fixed scan
 ------------------
 Symbolic Z-matrix:
 Charge =  0 Multiplicity = 1

 SCF Done:  E(RHF) =  -492.837485062     A.U. after   15 cycles
 SCF Done:  E(RHF) =  -492.848294123     A.U. after   14 cycles
 SCF Done:  E(RHF) =  -492.851422748     A.U. after   13 cycles
 SCF Done:  E(RHF) =  -492.852198432     A.U. after   13 cycles
 SCF Done:  E(RHF) =  -492.852744392     A.U. after   13 cycles
 SCF Done:  E(RHF) =  -492.853664416     A.U. after   13 cycles
 SCF Done:  E(RHF) =  -492.854085001     A.U. after   13 cycles
 SCF Done:  E(RHF) =  -492.853987803     A.U. after   12 cycles
 SCF Done:  E(RHF) =  -492.854206537     A.U. after   12 cycles
 SCF Done:  E(RHF) =  -492.854215941     A.U. after   10 cycles
 SCF Done:  E(RHF) =  -492.854382502     A.U. after   15 cycles
 SCF Done:  E(RHF) =  -492.854466696     A.U. after   14 cycles
 SCF Done:  E(RHF) =  -492.854466717     A.U. after   13 cycles
 SCF Done:  E(RHF) =  -492.854566017     A.U. after   11 cycles
 SCF Done:  E(RHF) =  -492.854652368     A.U. after   12 cycles
 SCF Done:  E(RHF) =  -492.854672880     A.U. after   12 cycles
 SCF Done:  E(RHF) =  -492.854680144     A.U. after   11 cycles
 SCF Done:  E(RHF) =  -492.854682997     A.U. after   11 cycles
 SCF Done:  E(RHF) =  -492.854684188     A.U. after    9 cycles
 SCF Done:  E(RHF) =  -492.854684378     A.U. after    8 cycles
 Optimization completed.
    -- Stationary point found.

                         Standard orientation:
 ---------------------------------------------------------------------
 Center     Atomic      Atomic             Coordinates (Angstroms)
 Number     Number       Type             X           Y           Z
 ---------------------------------------------------------------------
      1          1           0       -4.261774   -0.815651    0.390975
      2          6           0       -3.244399   -1.172701    0.455977
      3          1           0       -3.138388   -2.042410   -0.185849
      4          1           0       -3.023743   -1.474582    1.473384
      5          6           0       -2.307429   -0.084028   -0.019400
      6          8           0       -2.680636    0.842689   -0.683698
      7          7           0       -1.008887   -0.233059    0.368167
      8          1           0       -0.733899   -1.157950    0.619282
      9          6           0        0.032210    0.551394   -0.276125
     10          1           0       -0.209624    0.661149   -1.328966
     11          6           0        0.126184    1.944699    0.343891
     12          1           0        0.416413    1.892508    1.388237
     13          1           0        0.830673    2.573535   -0.193701
     14          1           0       -0.842750    2.418860    0.281757
     15          6           0        1.307962   -0.297838   -0.230115
     16          8           0        1.255134   -1.473564   -0.488982
     17          7           0        2.453042    0.301124    0.132805
     18          1           0        2.460713    1.269984    0.340767
     19          6           0        3.704281   -0.428655    0.157007
     20          1           0        3.638185   -1.275465    0.826836
     21          1           0        3.962933   -0.793257   -0.829081
     22          1           0        4.483350    0.236602    0.503577
 ---------------------------------------------------------------------

 The electronic state is 1-A.
 Alpha  occ. eigenvalues --  -20.53008 -20.52493 -15.59685 -15.57889 -11.35361
 Alpha  occ. eigenvalues --  -11.34561 -11.28047 -11.26551 -11.22914 -11.22488
 Alpha  occ. eigenvalues --   -1.40236  -1.39043  -1.24349  -1.23434  -1.05585
 Alpha  occ. eigenvalues --   -0.99243  -0.96089  -0.88996  -0.80320  -0.77968
 Alpha  occ. eigenvalues --   -0.73140  -0.67426  -0.66276  -0.65164  -0.62909
 Alpha  occ. eigenvalues --   -0.62046  -0.59396  -0.58849  -0.56857  -0.56063
 Alpha  occ. eigenvalues --   -0.55960  -0.54381  -0.54018  -0.52620  -0.49442
 Alpha  occ. eigenvalues --   -0.42505  -0.41667  -0.39915  -0.39406
 Alpha virt. eigenvalues --    0.19268   0.20100   0.21829   0.24181   0.25902
 Alpha virt. eigenvalues --    0.28186   0.28837   0.29648   0.31129   0.31950
 Alpha virt. eigenvalues --    0.32358   0.33339   0.33963   0.34795   0.37457

 Mulliken atomic charges:
              1
     1  H    0.212626
     2  C   -0.588531
     3  H    0.199597
     4  H    0.185548
     5  C    0.734839
     6  O   -0.602645
     7  N   -0.789028
     8  H    0.404378
     9  C   -0.018150
    10  H    0.226271
    11  C   -0.516605
    12  H    0.168310
    13  H    0.151516
    14  H    0.228824
    15  C    0.747509
    16  O   -0.628162
    17  N   -0.805729
    18  H    0.403673
    19  C   -0.269689
    20  H    0.195034
    21  H    0.190804
    22  H    0.169609
 Sum of Mulliken atomic charges =   0.00000

 Dipole moment (field-independent basis, Debye):
    X=              2.9094    Y=              0.6540    Z=              2.2039  Tot=              3.7080
 Quadrupole moment (field-independent basis, Debye-Ang):
   XX=            -55.4672   YY=            -62.5606   ZZ=            -61.7729
   XY=             12.5019   XZ=             -2.7425   YZ=             -0.8626

 Normal termination of Gaussian 09 at Fri Feb 10 10:11:30 2017.
