 Gaussian 09, Revision A.02,
 Gaussian 09:  EM64L-G09RevA.02 11-Jun-2009

 -------------------------------------------
 # HF/6-31G* Opt=(ModRedundant) geom=nocrowd
 -------------------------------------------

 ------------------
 Phi Psi fixed scan
 ------------------
 Symbolic Z-matrix:
 Charge =  0 Multiplicity = 1

 SCF Done:  E(RHF) =  -492.835035037     A.U. after   15 cycles
 SCF Done:  E(RHF) =  -492.844268050     A.U. after   15 cycles
 SCF Done:  E(RHF) =  -492.847208862     A.U. after   13 cycles
 SCF Done:  E(RHF) =  -492.848653720     A.U. after   13 cycles
 SCF Done:  E(RHF) =  -492.850804258     A.U. after   14 cycles
 SCF Done:  E(RHF) =  -492.851596931     A.U. after   13 cycles
 SCF Done:  E(RHF) =  -492.852352059     A.U. after   13 cycles
 SCF Done:  E(RHF) =  -492.852449565     A.U. after   13 cycles
 SCF Done:  E(RHF) =  -492.852694846     A.U. after   12 cycles
 SCF Done:  E(RHF) =  -492.852815785     A.U. after   12 cycles
 SCF Done:  E(RHF) =  -492.853461331     A.U. after   12 cycles
 SCF Done:  E(RHF) =  -492.853566618     A.U. after   11 cycles
 SCF Done:  E(RHF) =  -492.853601416     A.U. after   12 cycles
 SCF Done:  E(RHF) =  -492.853603842     A.U. after   11 cycles
 SCF Done:  E(RHF) =  -492.853619323     A.U. after   11 cycles
 SCF Done:  E(RHF) =  -492.853619747     A.U. after    8 cycles
 SCF Done:  E(RHF) =  -492.853619888     A.U. after    7 cycles
 SCF Done:  E(RHF) =  -492.853620111     A.U. after    8 cycles
 SCF Done:  E(RHF) =  -492.853620285     A.U. after    8 cycles
 SCF Done:  E(RHF) =  -492.853620324     A.U. after    8 cycles
 Optimization completed.
    -- Stationary point found.

                         Standard orientation:
 ---------------------------------------------------------------------
 Center     Atomic      Atomic             Coordinates (Angstroms)
 Number     Number       Type             X           Y           Z
 ---------------------------------------------------------------------
      1          1           0       -4.014573   -1.358180   -0.227103
      2          6           0       -3.123587   -1.278273    0.377879
      3          1           0       -2.654411   -2.251205    0.471613
      4          1           0       -3.407529   -0.941714    1.371015
      5          6           0       -2.191513   -0.265308   -0.251075
      6          8           0       -2.561013    0.526397   -1.066946
      7          7           0       -0.888248   -0.339784    0.178229
      8          1           0       -0.775028   -0.793588    1.060828
      9          6           0        0.024196    0.770128   -0.062070
     10          1           0       -0.261744    1.202176   -1.008178
     11          6           0       -0.062689    1.848008    1.022831
     12          1           0        0.197393    1.441147    1.996596
     13          1           0        0.618040    2.658131    0.799147
     14          1           0       -1.071980    2.240357    1.069246
     15          6           0        1.476219    0.324783   -0.219024
     16          8           0        2.300280    1.113949   -0.590387
     17          7           0        1.792217   -0.932206    0.181087
     18          1           0        1.060794   -1.604448    0.142555
     19          6           0        3.143141   -1.425192   -0.003922
     20          1           0        3.841921   -0.728917    0.434350
     21          1           0        3.234993   -2.379770    0.497706
     22          1           0        3.395607   -1.547707   -1.052034
 ---------------------------------------------------------------------

 The electronic state is 1-A.
 Alpha  occ. eigenvalues --  -20.53940 -20.52522 -15.59687 -15.58746 -11.36081
 Alpha  occ. eigenvalues --  -11.34581 -11.27808 -11.25835 -11.24334 -11.22466
 Alpha  occ. eigenvalues --   -1.40724  -1.39447  -1.25530  -1.22786  -1.05795
 Alpha  occ. eigenvalues --   -0.99992  -0.96118  -0.88191  -0.80205  -0.78680
 Alpha  occ. eigenvalues --   -0.73461  -0.68139  -0.66086  -0.63864  -0.63154
 Alpha  occ. eigenvalues --   -0.62945  -0.59512  -0.59362  -0.58606  -0.57068
 Alpha  occ. eigenvalues --   -0.55334  -0.54637  -0.52755  -0.52408  -0.49874
 Alpha  occ. eigenvalues --   -0.43651  -0.43254  -0.39607  -0.39415
 Alpha virt. eigenvalues --    0.18604   0.19415   0.20261   0.24700   0.26534
 Alpha virt. eigenvalues --    0.26904   0.28818   0.29764   0.30345   0.31695
 Alpha virt. eigenvalues --    0.31952   0.33084   0.33387   0.34484   0.37384

 Mulliken atomic charges:
              1
     1  H    0.221311
     2  C   -0.592677
     3  H    0.183133
     4  H    0.194729
     5  C    0.743315
     6  O   -0.579246
     7  N   -0.819959
     8  H    0.373675
     9  C   -0.053418
    10  H    0.258161
    11  C   -0.496049
    12  H    0.155767
    13  H    0.210690
    14  H    0.185914
    15  C    0.759782
    16  O   -0.609482
    17  N   -0.795058
    18  H    0.389412
    19  C   -0.280674
    20  H    0.205599
    21  H    0.167174
    22  H    0.177904
 Sum of Mulliken atomic charges =   0.00000

 Dipole moment (field-independent basis, Debye):
    X=             -0.8645    Y=             -4.4406    Z=              3.5850  Tot=              5.7722
 Quadrupole moment (field-independent basis, Debye-Ang):
   XX=            -66.9243   YY=            -58.2053   ZZ=            -62.3078
   XY=             -2.1022   XZ=             -4.4181   YZ=              2.3316

 Normal termination of Gaussian 09 at Fri Feb 10 10:36:27 2017.
