 Gaussian 09, Revision A.02,
 Gaussian 09:  EM64L-G09RevA.02 11-Jun-2009

 -------------------------------------------
 # HF/6-31G* Opt=(ModRedundant) geom=nocrowd
 -------------------------------------------

 ------------------
 Phi Psi fixed scan
 ------------------
 Symbolic Z-matrix:
 Charge =  0 Multiplicity = 1

 SCF Done:  E(RHF) =  -492.837510685     A.U. after   15 cycles
 SCF Done:  E(RHF) =  -492.845144146     A.U. after   16 cycles
 SCF Done:  E(RHF) =  -492.846818366     A.U. after   13 cycles
 SCF Done:  E(RHF) =  -492.847093828     A.U. after   13 cycles
 SCF Done:  E(RHF) =  -492.847237459     A.U. after   12 cycles
 SCF Done:  E(RHF) =  -492.847331404     A.U. after   11 cycles
 SCF Done:  E(RHF) =  -492.847437735     A.U. after   14 cycles
 SCF Done:  E(RHF) =  -492.847607956     A.U. after   12 cycles
 SCF Done:  E(RHF) =  -492.847746545     A.U. after   12 cycles
 SCF Done:  E(RHF) =  -492.847477798     A.U. after   16 cycles
 SCF Done:  E(RHF) =  -492.850879937     A.U. after   13 cycles
 SCF Done:  E(RHF) =  -492.850907943     A.U. after   13 cycles
 SCF Done:  E(RHF) =  -492.850949590     A.U. after   12 cycles
 SCF Done:  E(RHF) =  -492.850956893     A.U. after   11 cycles
 SCF Done:  E(RHF) =  -492.850959623     A.U. after   10 cycles
 SCF Done:  E(RHF) =  -492.850960982     A.U. after    9 cycles
 SCF Done:  E(RHF) =  -492.850963176     A.U. after   10 cycles
 SCF Done:  E(RHF) =  -492.850964618     A.U. after   10 cycles
 SCF Done:  E(RHF) =  -492.850965008     A.U. after    9 cycles
 SCF Done:  E(RHF) =  -492.850965044     A.U. after    7 cycles
 Optimization completed.
    -- Stationary point found.

                         Standard orientation:
 ---------------------------------------------------------------------
 Center     Atomic      Atomic             Coordinates (Angstroms)
 Number     Number       Type             X           Y           Z
 ---------------------------------------------------------------------
      1          1           0       -4.059057   -1.293686   -0.304197
      2          6           0       -3.141853   -1.311622    0.265495
      3          1           0       -2.687869   -2.294041    0.200364
      4          1           0       -3.376400   -1.114643    1.307880
      5          6           0       -2.216773   -0.234566   -0.258840
      6          8           0       -2.600252    0.656703   -0.956557
      7          7           0       -0.901511   -0.375717    0.117421
      8          1           0       -0.781786   -0.923429    0.944035
      9          6           0        0.014844    0.750094   -0.014056
     10          1           0       -0.293542    1.295305   -0.890628
     11          6           0       -0.022886    1.686389    1.198398
     12          1           0        0.266207    1.162252    2.105199
     13          1           0        0.658076    2.515121    1.051734
     14          1           0       -1.024871    2.079199    1.327132
     15          6           0        1.456587    0.321442   -0.271602
     16          8           0        2.218759    1.086634   -0.792424
     17          7           0        1.857549   -0.871155    0.244426
     18          1           0        1.162697   -1.578728    0.313656
     19          6           0        3.212099   -1.331666    0.004074
     20          1           0        3.391837   -1.553342   -1.042744
     21          1           0        3.909545   -0.568546    0.314204
     22          1           0        3.382746   -2.224478    0.591475
 ---------------------------------------------------------------------

 The electronic state is 1-A.
 Alpha  occ. eigenvalues --  -20.53933 -20.52730 -15.59687 -15.58830 -11.36045
 Alpha  occ. eigenvalues --  -11.34614 -11.27756 -11.25863 -11.24300 -11.22689
 Alpha  occ. eigenvalues --   -1.40714  -1.39586  -1.25463  -1.22852  -1.05866
 Alpha  occ. eigenvalues --   -1.00042  -0.95998  -0.88354  -0.80159  -0.78751
 Alpha  occ. eigenvalues --   -0.73376  -0.68119  -0.66037  -0.63811  -0.63186
 Alpha  occ. eigenvalues --   -0.63117  -0.59480  -0.59213  -0.58723  -0.57264
 Alpha  occ. eigenvalues --   -0.55401  -0.54715  -0.52689  -0.52423  -0.50057
 Alpha  occ. eigenvalues --   -0.43837  -0.43226  -0.39736  -0.39361
 Alpha virt. eigenvalues --    0.18657   0.19271   0.19788   0.24500   0.26411
 Alpha virt. eigenvalues --    0.26569   0.29082   0.29848   0.30546   0.31467
 Alpha virt. eigenvalues --    0.32062   0.33001   0.33241   0.34341   0.37466

 Mulliken atomic charges:
              1
     1  H    0.221728
     2  C   -0.593565
     3  H    0.185217
     4  H    0.192686
     5  C    0.742849
     6  O   -0.577940
     7  N   -0.812124
     8  H    0.368613
     9  C   -0.056286
    10  H    0.260035
    11  C   -0.498746
    12  H    0.158225
    13  H    0.205386
    14  H    0.188653
    15  C    0.758536
    16  O   -0.603126
    17  N   -0.790094
    18  H    0.381167
    19  C   -0.282010
    20  H    0.177678
    21  H    0.206008
    22  H    0.167110
 Sum of Mulliken atomic charges =   0.00000

 Dipole moment (field-independent basis, Debye):
    X=             -0.6099    Y=             -4.6976    Z=              3.8033  Tot=              6.0749
 Quadrupole moment (field-independent basis, Debye-Ang):
   XX=            -66.0382   YY=            -58.3624   ZZ=            -62.7751
   XY=             -0.8855   XZ=             -2.8812   YZ=              2.7107

 Normal termination of Gaussian 09 at Fri Feb 10 10:33:53 2017.
