 Gaussian 09, Revision A.02,
 Gaussian 09:  EM64L-G09RevA.02 11-Jun-2009

 -------------------------------------------
 # HF/6-31G* Opt=(ModRedundant) geom=nocrowd
 -------------------------------------------

 ------------------
 Phi Psi fixed scan
 ------------------
 Symbolic Z-matrix:
 Charge =  0 Multiplicity = 1

 SCF Done:  E(RHF) =  -492.841497735     A.U. after   15 cycles
 SCF Done:  E(RHF) =  -492.848998496     A.U. after   16 cycles
 SCF Done:  E(RHF) =  -492.849799921     A.U. after   13 cycles
 SCF Done:  E(RHF) =  -492.849822870     A.U. after   13 cycles
 SCF Done:  E(RHF) =  -492.850214756     A.U. after   13 cycles
 SCF Done:  E(RHF) =  -492.850457908     A.U. after   13 cycles
 SCF Done:  E(RHF) =  -492.850565268     A.U. after   13 cycles
 SCF Done:  E(RHF) =  -492.850693117     A.U. after   12 cycles
 SCF Done:  E(RHF) =  -492.850766547     A.U. after   11 cycles
 SCF Done:  E(RHF) =  -492.850939435     A.U. after   12 cycles
 SCF Done:  E(RHF) =  -492.851236315     A.U. after   13 cycles
 SCF Done:  E(RHF) =  -492.851280111     A.U. after   11 cycles
 SCF Done:  E(RHF) =  -492.851335965     A.U. after   12 cycles
 SCF Done:  E(RHF) =  -492.851378742     A.U. after   12 cycles
 SCF Done:  E(RHF) =  -492.851382501     A.U. after   11 cycles
 SCF Done:  E(RHF) =  -492.851383089     A.U. after    8 cycles
 SCF Done:  E(RHF) =  -492.851383585     A.U. after    9 cycles
 SCF Done:  E(RHF) =  -492.851384477     A.U. after   10 cycles
 SCF Done:  E(RHF) =  -492.851385312     A.U. after   10 cycles
 SCF Done:  E(RHF) =  -492.851385441     A.U. after    9 cycles
 Optimization completed.
    -- Stationary point found.

                         Standard orientation:
 ---------------------------------------------------------------------
 Center     Atomic      Atomic             Coordinates (Angstroms)
 Number     Number       Type             X           Y           Z
 ---------------------------------------------------------------------
      1          1           0        4.043781   -1.281245   -0.331743
      2          6           0        3.015873   -1.522907   -0.103158
      3          1           0        2.993063   -2.071666    0.833405
      4          1           0        2.608137   -2.158264   -0.881259
      5          6           0        2.235066   -0.236594    0.060567
      6          8           0        2.755494    0.789767    0.398500
      7          7           0        0.903023   -0.329247   -0.189811
      8          1           0        0.514461   -1.233278   -0.334182
      9          6           0       -0.004555    0.764312    0.138674
     10          1           0        0.338480    1.228176    1.050451
     11          6           0       -0.054051    1.824888   -0.963701
     12          1           0       -0.346698    1.402832   -1.920163
     13          1           0       -0.755040    2.611778   -0.703827
     14          1           0        0.928277    2.263599   -1.076884
     15          6           0       -1.380316    0.187973    0.467179
     16          8           0       -1.887619    0.339441    1.541527
     17          7           0       -1.975132   -0.522253   -0.526914
     18          1           0       -1.626718   -0.412173   -1.451694
     19          6           0       -3.330604   -1.013663   -0.377687
     20          1           0       -3.422498   -1.538687    0.561148
     21          1           0       -4.058402   -0.209317   -0.392152
     22          1           0       -3.543553   -1.698964   -1.187493
 ---------------------------------------------------------------------

 The electronic state is 1-A.
 Alpha  occ. eigenvalues --  -20.53413 -20.52646 -15.59536 -15.59118 -11.35192
 Alpha  occ. eigenvalues --  -11.35189 -11.27924 -11.26507 -11.23639 -11.22624
 Alpha  occ. eigenvalues --   -1.40301  -1.39437  -1.25191  -1.23141  -1.05886
 Alpha  occ. eigenvalues --   -0.99621  -0.96385  -0.88804  -0.79739  -0.79459
 Alpha  occ. eigenvalues --   -0.73503  -0.67653  -0.66612  -0.64121  -0.63396
 Alpha  occ. eigenvalues --   -0.62546  -0.59574  -0.59407  -0.57620  -0.57104
 Alpha  occ. eigenvalues --   -0.56195  -0.54815  -0.53229  -0.52159  -0.49939
 Alpha  occ. eigenvalues --   -0.43580  -0.41911  -0.40007  -0.39129
 Alpha virt. eigenvalues --    0.18357   0.19802   0.21709   0.22764   0.25766
 Alpha virt. eigenvalues --    0.27540   0.28423   0.29971   0.30239   0.31179
 Alpha virt. eigenvalues --    0.32544   0.33106   0.34793   0.35509   0.36594

 Mulliken atomic charges:
              1
     1  H    0.215735
     2  C   -0.585334
     3  H    0.202832
     4  H    0.173484
     5  C    0.749205
     6  O   -0.600698
     7  N   -0.821797
     8  H    0.391071
     9  C   -0.030473
    10  H    0.247903
    11  C   -0.492361
    12  H    0.143871
    13  H    0.177997
    14  H    0.216757
    15  C    0.730236
    16  O   -0.592492
    17  N   -0.791595
    18  H    0.387014
    19  C   -0.277307
    20  H    0.206842
    21  H    0.179608
    22  H    0.169501
 Sum of Mulliken atomic charges =   0.00000

 Dipole moment (field-independent basis, Debye):
    X=             -1.5189    Y=             -3.4031    Z=             -4.2292  Tot=              5.6369
 Quadrupole moment (field-independent basis, Debye-Ang):
   XX=            -64.8461   YY=            -57.5800   ZZ=            -63.8689
   XY=             -5.1381   XZ=              5.3733   YZ=             -1.3967

 Normal termination of Gaussian 09 at Fri Feb 10 10:28:02 2017.
