 Gaussian 09, Revision A.02,
 Gaussian 09:  EM64L-G09RevA.02 11-Jun-2009

 -------------------------------------------
 # HF/6-31G* Opt=(ModRedundant) geom=nocrowd
 -------------------------------------------

 ------------------
 Phi Psi fixed scan
 ------------------
 Symbolic Z-matrix:
 Charge =  0 Multiplicity = 1

 SCF Done:  E(RHF) =  -492.848196810     A.U. after   15 cycles
 SCF Done:  E(RHF) =  -492.855015460     A.U. after   16 cycles
 SCF Done:  E(RHF) =  -492.855648905     A.U. after   13 cycles
 SCF Done:  E(RHF) =  -492.855888151     A.U. after   13 cycles
 SCF Done:  E(RHF) =  -492.856109392     A.U. after   13 cycles
 SCF Done:  E(RHF) =  -492.856211087     A.U. after   13 cycles
 SCF Done:  E(RHF) =  -492.856207727     A.U. after   13 cycles
 SCF Done:  E(RHF) =  -492.856288107     A.U. after   12 cycles
 SCF Done:  E(RHF) =  -492.856307698     A.U. after   11 cycles
 SCF Done:  E(RHF) =  -492.856337640     A.U. after   11 cycles
 SCF Done:  E(RHF) =  -492.856606685     A.U. after   12 cycles
 SCF Done:  E(RHF) =  -492.856625464     A.U. after   11 cycles
 SCF Done:  E(RHF) =  -492.856660032     A.U. after   11 cycles
 SCF Done:  E(RHF) =  -492.856705600     A.U. after   12 cycles
 SCF Done:  E(RHF) =  -492.856715412     A.U. after   11 cycles
 SCF Done:  E(RHF) =  -492.856717620     A.U. after   11 cycles
 SCF Done:  E(RHF) =  -492.856719021     A.U. after    9 cycles
 SCF Done:  E(RHF) =  -492.856719632     A.U. after   10 cycles
 SCF Done:  E(RHF) =  -492.856719732     A.U. after    9 cycles
 SCF Done:  E(RHF) =  -492.856719737     A.U. after    7 cycles
 Optimization completed.
    -- Stationary point found.

                         Standard orientation:
 ---------------------------------------------------------------------
 Center     Atomic      Atomic             Coordinates (Angstroms)
 Number     Number       Type             X           Y           Z
 ---------------------------------------------------------------------
      1          1           0       -3.816825   -1.627154    0.385103
      2          6           0       -3.101123   -1.005508    0.903239
      3          1           0       -2.602762   -1.582627    1.673570
      4          1           0       -3.636567   -0.190169    1.380490
      5          6           0       -2.127573   -0.434216   -0.104674
      6          8           0       -2.406392   -0.309492   -1.264808
      7          7           0       -0.916689   -0.076007    0.401652
      8          1           0       -0.816412   -0.041586    1.392847
      9          6           0        0.037200    0.707042   -0.369328
     10          1           0       -0.098390    0.419419   -1.401256
     11          6           0       -0.177892    2.209474   -0.226623
     12          1           0       -0.052904    2.517884    0.803444
     13          1           0        0.538798    2.757381   -0.829399
     14          1           0       -1.175832    2.467059   -0.561838
     15          6           0        1.427354    0.290405    0.112411
     16          8           0        1.955086    0.828646    1.049043
     17          7           0        1.985419   -0.740009   -0.552188
     18          1           0        1.436287   -1.219757   -1.227425
     19          6           0        3.226300   -1.342992   -0.115480
     20          1           0        3.951871   -0.570732    0.093144
     21          1           0        3.093104   -1.939458    0.781068
     22          1           0        3.603369   -1.976623   -0.907141
 ---------------------------------------------------------------------

 The electronic state is 1-A.
 Alpha  occ. eigenvalues --  -20.52910 -20.52796 -15.59177 -15.58944 -11.35446
 Alpha  occ. eigenvalues --  -11.34688 -11.27841 -11.26046 -11.23718 -11.21618
 Alpha  occ. eigenvalues --   -1.39982  -1.39382  -1.24681  -1.23307  -1.05536
 Alpha  occ. eigenvalues --   -0.99482  -0.96497  -0.87817  -0.79876  -0.79207
 Alpha  occ. eigenvalues --   -0.73090  -0.67485  -0.65749  -0.65093  -0.62746
 Alpha  occ. eigenvalues --   -0.62259  -0.60214  -0.58906  -0.57843  -0.56691
 Alpha  occ. eigenvalues --   -0.55568  -0.53484  -0.52632  -0.51757  -0.50710
 Alpha  occ. eigenvalues --   -0.42878  -0.42449  -0.39586  -0.38886
 Alpha virt. eigenvalues --    0.18956   0.20738   0.21874   0.22524   0.26371
 Alpha virt. eigenvalues --    0.27182   0.27924   0.30187   0.30977   0.32146
 Alpha virt. eigenvalues --    0.32443   0.32913   0.33760   0.35302   0.37534

 Mulliken atomic charges:
              1
     1  H    0.215516
     2  C   -0.587776
     3  H    0.180842
     4  H    0.199968
     5  C    0.747792
     6  O   -0.603345
     7  N   -0.808408
     8  H    0.392987
     9  C   -0.056123
    10  H    0.226494
    11  C   -0.480561
    12  H    0.186375
    13  H    0.171750
    14  H    0.182278
    15  C    0.770033
    16  O   -0.616647
    17  N   -0.791331
    18  H    0.393022
    19  C   -0.275226
    20  H    0.205885
    21  H    0.175359
    22  H    0.171117
 Sum of Mulliken atomic charges =   0.00000

 Dipole moment (field-independent basis, Debye):
    X=              0.0944    Y=             -2.0984    Z=              0.7986  Tot=              2.2472
 Quadrupole moment (field-independent basis, Debye-Ang):
   XX=            -62.5496   YY=            -58.0085   ZZ=            -63.2541
   XY=             -5.5636   XZ=            -14.1571   YZ=             -2.1339

 Normal termination of Gaussian 09 at Fri Feb 10 09:16:22 2017.
