 Gaussian 09, Revision A.02,
 Gaussian 09:  EM64L-G09RevA.02 11-Jun-2009

 -------------------------------------------
 # HF/6-31G* Opt=(ModRedundant) geom=nocrowd
 -------------------------------------------

 ------------------
 Phi Psi fixed scan
 ------------------
 Symbolic Z-matrix:
 Charge =  0 Multiplicity = 1

 SCF Done:  E(RHF) =  -492.835385748     A.U. after   15 cycles
 SCF Done:  E(RHF) =  -492.846201357     A.U. after   14 cycles
 SCF Done:  E(RHF) =  -492.848894214     A.U. after   13 cycles
 SCF Done:  E(RHF) =  -492.849222464     A.U. after   13 cycles
 SCF Done:  E(RHF) =  -492.849288190     A.U. after   13 cycles
 SCF Done:  E(RHF) =  -492.849431261     A.U. after   11 cycles
 SCF Done:  E(RHF) =  -492.849636318     A.U. after   13 cycles
 SCF Done:  E(RHF) =  -492.849633413     A.U. after   14 cycles
 SCF Done:  E(RHF) =  -492.850018338     A.U. after   13 cycles
 SCF Done:  E(RHF) =  -492.850144488     A.U. after   12 cycles
 SCF Done:  E(RHF) =  -492.850548535     A.U. after   12 cycles
 SCF Done:  E(RHF) =  -492.850565218     A.U. after   12 cycles
 SCF Done:  E(RHF) =  -492.850569393     A.U. after   11 cycles
 SCF Done:  E(RHF) =  -492.850596258     A.U. after   12 cycles
 SCF Done:  E(RHF) =  -492.850631385     A.U. after   10 cycles
 SCF Done:  E(RHF) =  -492.850658236     A.U. after   11 cycles
 SCF Done:  E(RHF) =  -492.850662257     A.U. after   11 cycles
 SCF Done:  E(RHF) =  -492.850664285     A.U. after   10 cycles
 SCF Done:  E(RHF) =  -492.850664652     A.U. after    9 cycles
 SCF Done:  E(RHF) =  -492.850664691     A.U. after    8 cycles
 Optimization completed.
    -- Stationary point found.

                         Standard orientation:
 ---------------------------------------------------------------------
 Center     Atomic      Atomic             Coordinates (Angstroms)
 Number     Number       Type             X           Y           Z
 ---------------------------------------------------------------------
      1          1           0        4.167733   -0.927506   -0.632518
      2          6           0        3.139075   -1.256341   -0.610710
      3          1           0        3.066140   -2.125787    0.035938
      4          1           0        2.824796   -1.546513   -1.606834
      5          6           0        2.278875   -0.145247   -0.049453
      6          8           0        2.730369    0.748345    0.610123
      7          7           0        0.952106   -0.233437   -0.350875
      8          1           0        0.632907   -1.124484   -0.660979
      9          6           0       -0.016293    0.588622    0.367944
     10          1           0        0.294119    0.663566    1.401981
     11          6           0       -0.089220    1.994420   -0.223915
     12          1           0       -0.322027    1.968865   -1.284087
     13          1           0       -0.831359    2.597750    0.291077
     14          1           0        0.872624    2.473951   -0.108792
     15          6           0       -1.327639   -0.204637    0.398172
     16          8           0       -1.415686   -1.186328    1.087215
     17          7           0       -2.319828    0.187264   -0.422228
     18          1           0       -2.235161    1.039481   -0.921726
     19          6           0       -3.593200   -0.502751   -0.437688
     20          1           0       -3.446896   -1.555461   -0.635708
     21          1           0       -4.109747   -0.403384    0.509609
     22          1           0       -4.206125   -0.077794   -1.221055
 ---------------------------------------------------------------------

 The electronic state is 1-A.
 Alpha  occ. eigenvalues --  -20.52821 -20.52701 -15.59507 -15.58620 -11.35087
 Alpha  occ. eigenvalues --  -11.34898 -11.27953 -11.26469 -11.23257 -11.22458
 Alpha  occ. eigenvalues --   -1.40051  -1.39274  -1.24384  -1.23527  -1.05673
 Alpha  occ. eigenvalues --   -0.99433  -0.96093  -0.89001  -0.79907  -0.78666
 Alpha  occ. eigenvalues --   -0.73181  -0.67558  -0.66524  -0.64747  -0.62910
 Alpha  occ. eigenvalues --   -0.62295  -0.59479  -0.58665  -0.57049  -0.56444
 Alpha  occ. eigenvalues --   -0.55960  -0.54619  -0.53984  -0.52350  -0.49686
 Alpha  occ. eigenvalues --   -0.42814  -0.41380  -0.40228  -0.39161
 Alpha virt. eigenvalues --    0.18807   0.20220   0.21855   0.23067   0.25830
 Alpha virt. eigenvalues --    0.27827   0.28176   0.30193   0.30618   0.31521
 Alpha virt. eigenvalues --    0.32711   0.33314   0.33964   0.34792   0.37554

 Mulliken atomic charges:
              1
     1  H    0.214801
     2  C   -0.589741
     3  H    0.201548
     4  H    0.182072
     5  C    0.742343
     6  O   -0.599581
     7  N   -0.796190
     8  H    0.393351
     9  C    0.001534
    10  H    0.231049
    11  C   -0.518530
    12  H    0.156153
    13  H    0.163586
    14  H    0.227431
    15  C    0.713784
    16  O   -0.611852
    17  N   -0.795538
    18  H    0.401784
    19  C   -0.271014
    20  H    0.196673
    21  H    0.187097
    22  H    0.169241
 Sum of Mulliken atomic charges =   0.00000

 Dipole moment (field-independent basis, Debye):
    X=             -2.5027    Y=              0.1620    Z=             -3.6891  Tot=              4.4609
 Quadrupole moment (field-independent basis, Debye-Ang):
   XX=            -58.4072   YY=            -60.5278   ZZ=            -62.8366
   XY=            -11.3470   XZ=              0.2035   YZ=              2.5513

 Normal termination of Gaussian 09 at Fri Feb 10 10:18:56 2017.
