 Gaussian 09, Revision A.02,
 Gaussian 09:  EM64L-G09RevA.02 11-Jun-2009

 -------------------
 #SP MP2/aug-cc-pVDZ
 -------------------

 -------------------------------
 Single Point calculation at MP2
 -------------------------------
 Symbolic Z-matrix:
 Charge =  0 Multiplicity = 1

                         Standard orientation:
 ---------------------------------------------------------------------
 Center     Atomic      Atomic             Coordinates (Angstroms)
 Number     Number       Type             X           Y           Z
 ---------------------------------------------------------------------
      1          1           0       -3.979913   -0.373366   -0.067896
      2          6           0       -3.163515   -0.785471   -0.671696
      3          1           0       -3.266913   -0.413370   -1.695896
      4          1           0       -3.269522   -1.873070   -0.669996
      5          6           0       -1.837713   -0.421779   -0.021196
      6          8           0       -1.450816   -0.977781    1.006804
      7          7           0       -1.108807    0.540717   -0.656596
      8          1           0       -1.478605    0.939919   -1.506696
      9          6           0        0.061897    1.212610   -0.062396
     10          1           0        0.184003    2.125509   -0.652496
     11          6           0       -0.101400    1.623711    1.404104
     12          1           0       -0.247406    0.775512    2.071404
     13          1           0        0.789003    2.177805    1.718804
     14          1           0       -0.968796    2.285516    1.504804
     15          6           0        1.328592    0.401902   -0.424696
     16          8           0        1.979994    0.666998   -1.427796
     17          7           0        1.659986   -0.571300    0.472404
     18          1           0        0.907984   -0.882595    1.079804
     19          6           0        2.739381   -1.505506    0.194204
     20          1           0        3.526984   -0.970511   -0.338696
     21          1           0        3.136178   -1.896609    1.135304
     22          1           0        2.411875   -2.347204   -0.431096
 ---------------------------------------------------------------------

 SCF Done:  E(RHF) =  -492.921594310     A.U. after   14 cycles
 E2 =    -0.1602695508D+01 EUMP2 =    -0.49452428981742D+03

 The electronic state is 1-A.
 Alpha  occ. eigenvalues --  -20.54080 -20.52893 -15.61015 -15.58336 -11.37541
 Alpha  occ. eigenvalues --  -11.35304 -11.29668 -11.25965 -11.25632 -11.23561
 Alpha  occ. eigenvalues --   -1.39485  -1.37927  -1.24793  -1.22245  -1.05908
 Alpha  occ. eigenvalues --   -0.99933  -0.94795  -0.89114  -0.80409  -0.76759
 Alpha  occ. eigenvalues --   -0.71873  -0.70270  -0.65559  -0.64026  -0.62512
 Alpha  occ. eigenvalues --   -0.61370  -0.59888  -0.58457  -0.57292  -0.56344
 Alpha  occ. eigenvalues --   -0.54676  -0.53979  -0.52321  -0.51454  -0.51114
 Alpha  occ. eigenvalues --   -0.43988  -0.43286  -0.39547  -0.38487
 Alpha virt. eigenvalues --    0.02736   0.04019   0.04177   0.04660   0.05808
 Alpha virt. eigenvalues --    0.05901   0.06482   0.06747   0.07569   0.08130
 Alpha virt. eigenvalues --    0.08796   0.10038   0.10947   0.11889   0.11937

 Mulliken atomic charges:
              1
     1  H    0.056796
     2  C    0.448234
     3  H   -0.107613
     4  H    0.025363
     5  C    0.608909
     6  O   -0.853075
     7  N   -0.367995
     8  H   -0.113388
     9  C   -0.041395
    10  H   -0.211561
    11  C    0.810387
    12  H    0.001577
    13  H   -0.048295
    14  H   -0.047465
    15  C    0.873204
    16  O   -0.842385
    17  N   -0.575483
    18  H   -0.015363
    19  C    0.757051
    20  H   -0.122727
    21  H   -0.163457
    22  H   -0.071317
 Sum of Mulliken atomic charges =   0.00000

 Dipole moment (field-independent basis, Debye):
    X=             -3.0635    Y=              0.5764    Z=              0.0638  Tot=              3.1179
 Quadrupole moment (field-independent basis, Debye-Ang):
   XX=            -58.3541   YY=            -58.8426   ZZ=            -65.7066
   XY=             -6.5821   XZ=             12.1903   YZ=              3.1467

 Normal termination of Gaussian 09 at Tue Feb 14 05:35:29 2017.
