 Gaussian 09, Revision A.02,
 Gaussian 09:  EM64L-G09RevA.02 11-Jun-2009

 -------------------
 #SP MP2/aug-cc-pVDZ
 -------------------

 -------------------------------
 Single Point calculation at MP2
 -------------------------------
 Symbolic Z-matrix:
 Charge =  0 Multiplicity = 1

                         Standard orientation:
 ---------------------------------------------------------------------
 Center     Atomic      Atomic             Coordinates (Angstroms)
 Number     Number       Type             X           Y           Z
 ---------------------------------------------------------------------
      1          1           0       -4.007796   -1.248006    0.050406
      2          6           0       -2.979295   -1.469503   -0.239994
      3          1           0       -2.959294   -1.800103   -1.284394
      4          1           0       -2.617292   -2.292201    0.388306
      5          6           0       -2.124899   -0.231200    0.016306
      6          8           0       -2.416802    0.582899    0.876706
      7          7           0       -1.033400   -0.131496   -0.822694
      8          1           0       -0.864397   -0.943395   -1.402294
      9          6           0        0.137697    0.731308   -0.657694
     10          1           0        0.514397    0.910809   -1.675394
     11          6           0       -0.151607    2.093707   -0.017294
     12          1           0       -0.444607    1.980206    1.024706
     13          1           0        0.754891    2.707710   -0.078494
     14          1           0       -0.957209    2.605204   -0.550694
     15          6           0        1.224100   -0.017988    0.149206
     16          8           0        1.011302   -0.451189    1.272606
     17          7           0        2.412001   -0.185184   -0.510294
     18          1           0        2.531999    0.258716   -1.409594
     19          6           0        3.571303   -0.796380    0.117506
     20          1           0        3.232104   -1.251481    1.049006
     21          1           0        4.000105   -1.569178   -0.529794
     22          1           0        4.347100   -0.054877    0.346406
 ---------------------------------------------------------------------

 SCF Done:  E(RHF) =  -492.913316608     A.U. after   14 cycles
 E2 =    -0.1601357193D+01 EUMP2 =    -0.49451467380117D+03

 The electronic state is 1-A.
 Alpha  occ. eigenvalues --  -20.53156 -20.52407 -15.60425 -15.59633 -11.36064
 Alpha  occ. eigenvalues --  -11.35931 -11.29930 -11.27311 -11.24170 -11.22644
 Alpha  occ. eigenvalues --   -1.38811  -1.37689  -1.24104  -1.23309  -1.05426
 Alpha  occ. eigenvalues --   -0.98644  -0.96107  -0.87903  -0.80115  -0.77054
 Alpha  occ. eigenvalues --   -0.71887  -0.69664  -0.65765  -0.63564  -0.62391
 Alpha  occ. eigenvalues --   -0.61803  -0.59532  -0.58557  -0.56182  -0.55408
 Alpha  occ. eigenvalues --   -0.55137  -0.53198  -0.52037  -0.51066  -0.50614
 Alpha  occ. eigenvalues --   -0.44209  -0.41261  -0.39770  -0.38493
 Alpha virt. eigenvalues --    0.02143   0.03654   0.03976   0.04545   0.05752
 Alpha virt. eigenvalues --    0.05927   0.06088   0.06632   0.07805   0.07913
 Alpha virt. eigenvalues --    0.08596   0.09171   0.10908   0.12035   0.12937

 Mulliken atomic charges:
              1
     1  H   -0.027678
     2  C    0.324442
     3  H   -0.067456
     4  H    0.065415
     5  C    0.711054
     6  O   -0.787114
     7  N   -0.357078
     8  H   -0.090031
     9  C   -0.381503
    10  H   -0.339602
    11  C    0.784079
    12  H    0.084791
    13  H   -0.091890
    14  H   -0.014565
    15  C    1.232573
    16  O   -0.842039
    17  N   -0.487329
    18  H   -0.110213
    19  C    0.751794
    20  H   -0.143691
    21  H   -0.124538
    22  H   -0.089422
 Sum of Mulliken atomic charges =   0.00000

 Dipole moment (field-independent basis, Debye):
    X=              3.1180    Y=             -1.2518    Z=             -5.6194  Tot=              6.5473
 Quadrupole moment (field-independent basis, Debye-Ang):
   XX=            -55.7615   YY=            -58.4537   ZZ=            -64.1822
   XY=              6.7315   XZ=              0.7208   YZ=              0.3686

 Normal termination of Gaussian 09 at Tue Feb 14 05:07:47 2017.
