 Gaussian 09, Revision A.02,
 Gaussian 09:  EM64L-G09RevA.02 11-Jun-2009

 -------------------
 #SP MP2/aug-cc-pVDZ
 -------------------

 -------------------------------
 Single Point calculation at MP2
 -------------------------------
 Symbolic Z-matrix:
 Charge =  0 Multiplicity = 1

                         Standard orientation:
 ---------------------------------------------------------------------
 Center     Atomic      Atomic             Coordinates (Angstroms)
 Number     Number       Type             X           Y           Z
 ---------------------------------------------------------------------
      1          1           0       -3.475300   -1.708601   -0.404390
      2          6           0       -3.226602   -0.662201   -0.594490
      3          1           0       -3.976604   -0.044502   -0.086790
      4          1           0       -3.287003   -0.463401   -1.669290
      5          6           0       -1.858703   -0.366598   -0.000090
      6          8           0       -1.502102   -0.858397    1.072210
      7          7           0       -1.048605    0.443104   -0.741090
      8          1           0       -1.431106    0.788903   -1.609990
      9          6           0        0.121194    1.187807   -0.234390
     10          1           0        0.271092    2.004307   -0.945190
     11          6           0       -0.073708    1.800606    1.160410
     12          1           0       -0.225406    1.033306    1.920410
     13          1           0        0.816991    2.385208    1.411010
     14          1           0       -0.940109    2.471104    1.163210
     15          6           0        1.439195    0.385510   -0.324290
     16          8           0        2.463494    0.922312   -0.733690
     17          7           0        1.352598   -0.905091    0.093410
     18          1           0        0.485899   -1.195093    0.539810
     19          6           0        2.513300   -1.773888    0.159310
     20          1           0        3.313399   -1.307286   -0.417290
     21          1           0        2.859000   -1.912487    1.192110
     22          1           0        2.282002   -2.756289   -0.266790
 ---------------------------------------------------------------------

 SCF Done:  E(RHF) =  -492.922905241     A.U. after   14 cycles
 E2 =    -0.1603656561D+01 EUMP2 =    -0.49452656180209D+03

 The electronic state is 1-A.
 Alpha  occ. eigenvalues --  -20.54678 -20.52373 -15.61267 -15.57953 -11.38028
 Alpha  occ. eigenvalues --  -11.35134 -11.29796 -11.26065 -11.25783 -11.23513
 Alpha  occ. eigenvalues --   -1.39995  -1.37522  -1.25229  -1.21893  -1.06065
 Alpha  occ. eigenvalues --   -1.00246  -0.94972  -0.88797  -0.80443  -0.77018
 Alpha  occ. eigenvalues --   -0.72178  -0.70558  -0.65618  -0.63285  -0.62582
 Alpha  occ. eigenvalues --   -0.61317  -0.60103  -0.59156  -0.57702  -0.56706
 Alpha  occ. eigenvalues --   -0.54593  -0.53949  -0.52620  -0.51753  -0.50125
 Alpha  occ. eigenvalues --   -0.44205  -0.43762  -0.39664  -0.37852
 Alpha virt. eigenvalues --    0.02430   0.04038   0.04332   0.04417   0.05882
 Alpha virt. eigenvalues --    0.05926   0.06582   0.06764   0.07605   0.08152
 Alpha virt. eigenvalues --    0.09019   0.09770   0.10869   0.11540   0.12150

 Mulliken atomic charges:
              1
     1  H    0.013013
     2  C    0.453919
     3  H    0.059041
     4  H   -0.086959
     5  C    0.621364
     6  O   -0.868086
     7  N   -0.094194
     8  H   -0.135631
     9  C   -0.399581
    10  H   -0.176065
    11  C    0.809992
    12  H    0.021225
    13  H   -0.074966
    14  H   -0.069226
    15  C    1.052439
    16  O   -0.871455
    17  N   -0.567381
    18  H   -0.059071
    19  C    0.733581
    20  H   -0.155059
    21  H   -0.081980
    22  H   -0.124920
 Sum of Mulliken atomic charges =   0.00000

 Dipole moment (field-independent basis, Debye):
    X=             -4.1836    Y=             -0.0971    Z=             -1.4547  Tot=              4.4303
 Quadrupole moment (field-independent basis, Debye-Ang):
   XX=            -63.2284   YY=            -59.2359   ZZ=            -62.3917
   XY=             -8.5280   XZ=             10.3622   YZ=              2.2930

 Normal termination of Gaussian 09 at Tue Feb 14 05:36:19 2017.
