 Gaussian 09, Revision A.02,
 Gaussian 09:  EM64L-G09RevA.02 11-Jun-2009

 -------------------
 #SP MP2/aug-cc-pVDZ
 -------------------

 -------------------------------
 Single Point calculation at MP2
 -------------------------------
 Symbolic Z-matrix:
 Charge =  0 Multiplicity = 1

                         Standard orientation:
 ---------------------------------------------------------------------
 Center     Atomic      Atomic             Coordinates (Angstroms)
 Number     Number       Type             X           Y           Z
 ---------------------------------------------------------------------
      1          1           0       -4.069490   -0.866620    0.528703
      2          6           0       -3.168889   -1.148318   -0.019197
      3          1           0       -3.415389   -1.309319   -1.074097
      4          1           0       -2.793688   -2.093117    0.392403
      5          6           0       -2.116491   -0.063816    0.178803
      6          8           0       -2.142192    0.695084    1.137103
      7          7           0       -1.168991   -0.022315   -0.821697
      8          1           0       -1.120790   -0.865415   -1.379997
      9          6           0        0.115008    0.664787   -0.737397
     10          1           0        0.417408    0.847488   -1.779697
     11          6           0        0.064106    2.033187   -0.040497
     12          1           0       -0.062294    1.941287    1.037003
     13          1           0        0.979405    2.597589   -0.258297
     14          1           0       -0.776695    2.614186   -0.427397
     15          6           0        1.179710   -0.316711   -0.173397
     16          8           0        0.909611   -1.492011    0.042703
     17          7           0        2.436009    0.198091   -0.040697
     18          1           0        2.565507    1.192691   -0.153497
     19          6           0        3.554110   -0.587907    0.454503
     20          1           0        3.240912   -1.632407    0.464603
     21          1           0        4.424610   -0.475605   -0.201097
     22          1           0        3.836709   -0.293106    1.472803
 ---------------------------------------------------------------------

 SCF Done:  E(RHF) =  -492.917781049     A.U. after   14 cycles
 E2 =    -0.1600126959D+01 EUMP2 =    -0.49451790800848D+03

 The electronic state is 1-A.
 Alpha  occ. eigenvalues --  -20.53617 -20.52641 -15.60022 -15.58863 -11.36337
 Alpha  occ. eigenvalues --  -11.35782 -11.29909 -11.27182 -11.23825 -11.23746
 Alpha  occ. eigenvalues --   -1.39173  -1.37790  -1.23791  -1.23287  -1.05486
 Alpha  occ. eigenvalues --   -0.98632  -0.95662  -0.88783  -0.80095  -0.76208
 Alpha  occ. eigenvalues --   -0.72231  -0.69532  -0.65793  -0.63658  -0.62167
 Alpha  occ. eigenvalues --   -0.61890  -0.59463  -0.58516  -0.56322  -0.55773
 Alpha  occ. eigenvalues --   -0.55082  -0.53961  -0.53110  -0.51054  -0.50371
 Alpha  occ. eigenvalues --   -0.43350  -0.41692  -0.39878  -0.39121
 Alpha virt. eigenvalues --    0.02651   0.03853   0.04331   0.04633   0.05715
 Alpha virt. eigenvalues --    0.06024   0.06279   0.06856   0.07619   0.08118
 Alpha virt. eigenvalues --    0.09009   0.09153   0.11266   0.12133   0.12885

 Mulliken atomic charges:
              1
     1  H   -0.046657
     2  C    0.315321
     3  H   -0.030073
     4  H    0.071576
     5  C    0.689461
     6  O   -0.814468
     7  N   -0.521849
     8  H   -0.035370
     9  C   -0.006133
    10  H   -0.104538
    11  C    0.708084
    12  H    0.072310
    13  H   -0.163173
    14  H   -0.030430
    15  C    0.982154
    16  O   -0.811161
    17  N   -0.529415
    18  H   -0.095834
    19  C    0.713710
    20  H   -0.151996
    21  H   -0.130031
    22  H   -0.081491
 Sum of Mulliken atomic charges =   0.00000

 Dipole moment (field-independent basis, Debye):
    X=              2.5714    Y=              1.0661    Z=             -2.9606  Tot=              4.0638
 Quadrupole moment (field-independent basis, Debye-Ang):
   XX=            -52.5680   YY=            -62.7482   ZZ=            -62.9895
   XY=              9.5885   XZ=              5.6767   YZ=             -1.2113

 Normal termination of Gaussian 09 at Tue Feb 14 05:19:57 2017.
