 Gaussian 09, Revision A.02,
 Gaussian 09:  EM64L-G09RevA.02 11-Jun-2009

 -------------------
 #SP MP2/aug-cc-pVDZ
 -------------------

 -------------------------------
 Single Point calculation at MP2
 -------------------------------
 Symbolic Z-matrix:
 Charge =  0 Multiplicity = 1

                         Standard orientation:
 ---------------------------------------------------------------------
 Center     Atomic      Atomic             Coordinates (Angstroms)
 Number     Number       Type             X           Y           Z
 ---------------------------------------------------------------------
      1          1           0        4.093400   -0.926607   -0.336799
      2          6           0        3.155299   -1.182505    0.158301
      3          1           0        3.335199   -1.337305    1.227701
      4          1           0        2.784198   -2.123204   -0.266299
      5          6           0        2.140301   -0.078903   -0.115699
      6          8           0        2.236202    0.660896   -1.083299
      7          7           0        1.141901    0.000898    0.832601
      8          1           0        1.079000   -0.809202    1.435901
      9          6           0       -0.130398    0.693800    0.677701
     10          1           0       -0.465397    0.934001    1.698001
     11          6           0       -0.053896    2.019500   -0.097199
     12          1           0        0.153504    1.859500   -1.153899
     13          1           0       -1.000895    2.561302    0.011201
     14          1           0        0.743005    2.646399    0.311001
     15          6           0       -1.183099   -0.285698    0.091801
     16          8           0       -0.869301   -1.371999   -0.376699
     17          7           0       -2.476198    0.140804    0.200001
     18          1           0       -2.650597    1.069704    0.556301
     19          6           0       -3.599600   -0.617494   -0.323699
     20          1           0       -3.216501   -1.588495   -0.639699
     21          1           0       -4.364400   -0.763893    0.447401
     22          1           0       -4.057299   -0.117494   -1.186299
 ---------------------------------------------------------------------

 SCF Done:  E(RHF) =  -492.916946767     A.U. after   14 cycles
 E2 =    -0.1600164701D+01 EUMP2 =    -0.49451711146797D+03

 The electronic state is 1-A.
 Alpha  occ. eigenvalues --  -20.53595 -20.52469 -15.60037 -15.58974 -11.36250
 Alpha  occ. eigenvalues --  -11.35725 -11.29907 -11.27222 -11.23791 -11.23525
 Alpha  occ. eigenvalues --   -1.39100  -1.37678  -1.23822  -1.23300  -1.05479
 Alpha  occ. eigenvalues --   -0.98577  -0.95726  -0.88501  -0.80046  -0.76422
 Alpha  occ. eigenvalues --   -0.72106  -0.69563  -0.65811  -0.63203  -0.62440
 Alpha  occ. eigenvalues --   -0.61909  -0.59338  -0.58463  -0.56356  -0.55701
 Alpha  occ. eigenvalues --   -0.55082  -0.53548  -0.53244  -0.51008  -0.50356
 Alpha  occ. eigenvalues --   -0.43434  -0.41489  -0.39718  -0.39043
 Alpha virt. eigenvalues --    0.02513   0.03777   0.04264   0.04573   0.05738
 Alpha virt. eigenvalues --    0.06014   0.06265   0.06956   0.07624   0.08192
 Alpha virt. eigenvalues --    0.08755   0.08902   0.11393   0.11581   0.12984

 Mulliken atomic charges:
              1
     1  H   -0.042806
     2  C    0.316078
     3  H   -0.036927
     4  H    0.074074
     5  C    0.693961
     6  O   -0.814597
     7  N   -0.480959
     8  H   -0.062894
     9  C   -0.135305
    10  H   -0.158532
    11  C    0.717205
    12  H    0.067794
    13  H   -0.160390
    14  H   -0.018872
    15  C    1.122378
    16  O   -0.822086
    17  N   -0.520853
    18  H   -0.111721
    19  C    0.729650
    20  H   -0.146286
    21  H   -0.116851
    22  H   -0.092061
 Sum of Mulliken atomic charges =   0.00000

 Dipole moment (field-independent basis, Debye):
    X=             -2.9148    Y=              0.8557    Z=              3.8027  Tot=              4.8671
 Quadrupole moment (field-independent basis, Debye-Ang):
   XX=            -52.8632   YY=            -62.1194   ZZ=            -62.8881
   XY=             -9.2058   XZ=              4.6293   YZ=              0.1960

 Normal termination of Gaussian 09 at Tue Feb 14 04:54:48 2017.
