 Gaussian 09, Revision A.02,
 Gaussian 09:  EM64L-G09RevA.02 11-Jun-2009

 -------------------
 #SP MP2/aug-cc-pVDZ
 -------------------

 -------------------------------
 Single Point calculation at MP2
 -------------------------------
 Symbolic Z-matrix:
 Charge =  0 Multiplicity = 1

                         Standard orientation:
 ---------------------------------------------------------------------
 Center     Atomic      Atomic             Coordinates (Angstroms)
 Number     Number       Type             X           Y           Z
 ---------------------------------------------------------------------
      1          1           0        4.015895   -0.582113   -0.093296
      2          6           0        3.134294   -1.066012    0.339904
      3          1           0        3.227794   -1.052912    1.430304
      4          1           0        3.126993   -2.102812   -0.007896
      5          6           0        1.887796   -0.365410   -0.184396
      6          8           0        1.591195   -0.393309   -1.375796
      7          7           0        1.146297    0.286692    0.759804
      8          1           0        1.372896    0.143291    1.732804
      9          6           0       -0.057102    1.086394    0.486904
     10          1           0       -0.176601    1.717394    1.373804
     11          6           0        0.056400    2.016393   -0.724096
     12          1           0        0.214399    1.480293   -1.659496
     13          1           0       -0.850899    2.625195   -0.795896
     14          1           0        0.909501    2.688992   -0.586096
     15          6           0       -1.285904    0.149596    0.569304
     16          8           0       -1.703504   -0.215004    1.662804
     17          7           0       -1.850704   -0.208603   -0.617596
     18          1           0       -1.301504   -0.052904   -1.452596
     19          6           0       -2.920206   -1.192101   -0.681596
     20          1           0       -3.498006   -1.123601    0.241004
     21          1           0       -3.568305   -0.978100   -1.536496
     22          1           0       -2.534508   -2.216002   -0.773796
 ---------------------------------------------------------------------

 SCF Done:  E(RHF) =  -492.920149788     A.U. after   14 cycles
 E2 =    -0.1601587566D+01 EUMP2 =    -0.49452173735396D+03

 The electronic state is 1-A.
 Alpha  occ. eigenvalues --  -20.53439 -20.52994 -15.60519 -15.59197 -11.37010
 Alpha  occ. eigenvalues --  -11.35691 -11.29717 -11.26465 -11.25124 -11.23570
 Alpha  occ. eigenvalues --   -1.39018  -1.38130  -1.24408  -1.22864  -1.05807
 Alpha  occ. eigenvalues --   -0.99524  -0.95172  -0.89262  -0.80179  -0.77140
 Alpha  occ. eigenvalues --   -0.72028  -0.70116  -0.65545  -0.64406  -0.62067
 Alpha  occ. eigenvalues --   -0.61480  -0.59688  -0.58688  -0.56899  -0.55844
 Alpha  occ. eigenvalues --   -0.54945  -0.54407  -0.52588  -0.51493  -0.50953
 Alpha  occ. eigenvalues --   -0.43855  -0.42521  -0.39673  -0.38680
 Alpha virt. eigenvalues --    0.03031   0.03844   0.04170   0.04875   0.05796
 Alpha virt. eigenvalues --    0.05851   0.06361   0.06902   0.07620   0.08008
 Alpha virt. eigenvalues --    0.08769   0.09854   0.11173   0.11625   0.12468

 Mulliken atomic charges:
              1
     1  H    0.047773
     2  C    0.424576
     3  H   -0.135708
     4  H    0.037186
     5  C    0.601499
     6  O   -0.834309
     7  N   -0.424342
     8  H   -0.097128
     9  C   -0.019203
    10  H   -0.171170
    11  C    0.799563
    12  H    0.068173
    13  H   -0.064196
    14  H   -0.062292
    15  C    0.952215
    16  O   -0.883100
    17  N   -0.595371
    18  H   -0.037469
    19  C    0.745925
    20  H   -0.123974
    21  H   -0.156587
    22  H   -0.072062
 Sum of Mulliken atomic charges =   0.00000

 Dipole moment (field-independent basis, Debye):
    X=              1.5468    Y=              0.7972    Z=             -0.0511  Tot=              1.7409
 Quadrupole moment (field-independent basis, Debye-Ang):
   XX=            -56.8544   YY=            -57.8688   ZZ=            -67.5470
   XY=             -0.2625   XZ=             13.9350   YZ=              0.6448

 Normal termination of Gaussian 09 at Tue Feb 14 05:14:27 2017.
