 Gaussian 09, Revision A.02,
 Gaussian 09:  EM64L-G09RevA.02 11-Jun-2009

 -------------------
 #SP MP2/aug-cc-pVDZ
 -------------------

 -------------------------------
 Single Point calculation at MP2
 -------------------------------
 Symbolic Z-matrix:
 Charge =  0 Multiplicity = 1

                         Standard orientation:
 ---------------------------------------------------------------------
 Center     Atomic      Atomic             Coordinates (Angstroms)
 Number     Number       Type             X           Y           Z
 ---------------------------------------------------------------------
      1          1           0       -3.474813   -1.764087    0.475404
      2          6           0       -3.151911   -1.042488   -0.277696
      3          1           0       -3.942409   -0.289386   -0.380496
      4          1           0       -3.034712   -1.549689   -1.241296
      5          6           0       -1.875209   -0.366692    0.208104
      6          8           0       -1.652308   -0.169793    1.392404
      7          7           0       -0.988008   -0.019295   -0.792696
      8          1           0       -1.342008   -0.113694   -1.735696
      9          6           0        0.099095    0.966002   -0.630096
     10          1           0        0.323996    1.299702   -1.651596
     11          6           0       -0.268601    2.205203    0.192904
     12          1           0       -0.530702    1.931904    1.215104
     13          1           0        0.593801    2.874201    0.212304
     14          1           0       -1.117500    2.724106   -0.265296
     15          6           0        1.430793    0.343898   -0.144896
     16          8           0        2.355495    1.067296    0.207104
     17          7           0        1.517889   -1.009602   -0.242096
     18          1           0        0.659988   -1.508599   -0.429896
     19          6           0        2.688887   -1.742705    0.202104
     20          1           0        3.498689   -1.022908    0.330604
     21          1           0        2.511186   -2.248705    1.159604
     22          1           0        2.981485   -2.489906   -0.543796
 ---------------------------------------------------------------------

 SCF Done:  E(RHF) =  -492.919731303     A.U. after   14 cycles
 E2 =    -0.1602670605D+01 EUMP2 =    -0.49452240190763D+03

 The electronic state is 1-A.
 Alpha  occ. eigenvalues --  -20.54461 -20.52359 -15.61058 -15.58896 -11.37548
 Alpha  occ. eigenvalues --  -11.35474 -11.29874 -11.26324 -11.25911 -11.22117
 Alpha  occ. eigenvalues --   -1.39837  -1.37802  -1.25208  -1.22281  -1.05563
 Alpha  occ. eigenvalues --   -0.99766  -0.95669  -0.87820  -0.80362  -0.77228
 Alpha  occ. eigenvalues --   -0.71969  -0.70337  -0.65952  -0.63410  -0.62423
 Alpha  occ. eigenvalues --   -0.61672  -0.60281  -0.59302  -0.57426  -0.55564
 Alpha  occ. eigenvalues --   -0.54435  -0.53920  -0.51988  -0.51550  -0.50019
 Alpha  occ. eigenvalues --   -0.44234  -0.43022  -0.39667  -0.38702
 Alpha virt. eigenvalues --    0.02119   0.03677   0.03923   0.04666   0.05694
 Alpha virt. eigenvalues --    0.06230   0.06261   0.06452   0.07524   0.08110
 Alpha virt. eigenvalues --    0.08588   0.09192   0.11580   0.12028   0.12188

 Mulliken atomic charges:
              1
     1  H    0.000037
     2  C    0.376906
     3  H    0.050179
     4  H   -0.104810
     5  C    0.676835
     6  O   -0.826721
     7  N   -0.113849
     8  H   -0.109531
     9  C   -0.556997
    10  H   -0.046376
    11  C    0.739317
    12  H    0.023817
    13  H   -0.059101
    14  H   -0.032064
    15  C    1.059173
    16  O   -0.845091
    17  N   -0.510512
    18  H   -0.071730
    19  C    0.704653
    20  H   -0.144690
    21  H   -0.077516
    22  H   -0.131929
 Sum of Mulliken atomic charges =   0.00000

 Dipole moment (field-independent basis, Debye):
    X=             -3.3256    Y=             -2.7409    Z=             -4.4957  Tot=              6.2277
 Quadrupole moment (field-independent basis, Debye-Ang):
   XX=            -62.6907   YY=            -58.3456   ZZ=            -62.9494
   XY=             -5.5480   XZ=              5.6624   YZ=             -0.8630

 Normal termination of Gaussian 09 at Tue Feb 14 05:05:12 2017.
