 Gaussian 09, Revision A.02,
 Gaussian 09:  EM64L-G09RevA.02 11-Jun-2009

 -------------------
 #SP MP2/aug-cc-pVDZ
 -------------------

 -------------------------------
 Single Point calculation at MP2
 -------------------------------
 Symbolic Z-matrix:
 Charge =  0 Multiplicity = 1

                         Standard orientation:
 ---------------------------------------------------------------------
 Center     Atomic      Atomic             Coordinates (Angstroms)
 Number     Number       Type             X           Y           Z
 ---------------------------------------------------------------------
      1          1           0       -4.048397   -0.793108    0.671796
      2          6           0       -3.165698   -1.127510    0.123696
      3          1           0       -3.437598   -1.344209   -0.914504
      4          1           0       -2.806099   -2.055510    0.584596
      5          6           0       -2.084996   -0.059211    0.239296
      6          8           0       -2.044995    0.721389    1.180496
      7          7           0       -1.190896   -0.057012   -0.808804
      8          1           0       -1.159797   -0.921412   -1.335304
      9          6           0        0.097305    0.633086   -0.805604
     10          1           0        0.358705    0.754085   -1.867804
     11          6           0        0.066407    2.040086   -0.194304
     12          1           0       -0.013193    2.019086    0.891896
     13          1           0        0.963607    2.595385   -0.495804
     14          1           0       -0.796993    2.589487   -0.578004
     15          6           0        1.181403   -0.334316   -0.258304
     16          8           0        0.992902   -1.546215   -0.270404
     17          7           0        2.364404    0.233283    0.108596
     18          1           0        2.405206    1.235883    0.214196
     19          6           0        3.480503   -0.554819    0.606396
     20          1           0        3.311202   -1.591019    0.311896
     21          1           0        4.420004   -0.199420    0.170496
     22          1           0        3.556003   -0.508419    1.700196
 ---------------------------------------------------------------------

 SCF Done:  E(RHF) =  -492.918641467     A.U. after   14 cycles
 E2 =    -0.1600356256D+01 EUMP2 =    -0.49451899772335D+03

 The electronic state is 1-A.
 Alpha  occ. eigenvalues --  -20.53539 -20.52815 -15.60084 -15.58915 -11.36363
 Alpha  occ. eigenvalues --  -11.35922 -11.29887 -11.27165 -11.23965 -11.23793
 Alpha  occ. eigenvalues --   -1.39155  -1.37923  -1.23815  -1.23318  -1.05533
 Alpha  occ. eigenvalues --   -0.98752  -0.95632  -0.89006  -0.80160  -0.76152
 Alpha  occ. eigenvalues --   -0.72289  -0.69565  -0.65735  -0.64116  -0.62046
 Alpha  occ. eigenvalues --   -0.61755  -0.59589  -0.58607  -0.56300  -0.55766
 Alpha  occ. eigenvalues --   -0.55162  -0.54287  -0.52987  -0.51097  -0.50409
 Alpha  occ. eigenvalues --   -0.43384  -0.41882  -0.40022  -0.39110
 Alpha virt. eigenvalues --    0.02810   0.03887   0.04343   0.04741   0.05683
 Alpha virt. eigenvalues --    0.05984   0.06301   0.06817   0.07596   0.07930
 Alpha virt. eigenvalues --    0.09259   0.09427   0.11033   0.11547   0.13085

 Mulliken atomic charges:
              1
     1  H   -0.038228
     2  C    0.324019
     3  H   -0.037242
     4  H    0.065837
     5  C    0.663537
     6  O   -0.813768
     7  N   -0.518970
     8  H   -0.019492
     9  C   -0.025503
    10  H   -0.080483
    11  C    0.751467
    12  H    0.050667
    13  H   -0.070742
    14  H   -0.092083
    15  C    0.921969
    16  O   -0.835188
    17  N   -0.501409
    18  H   -0.106123
    19  C    0.727680
    20  H   -0.144766
    21  H   -0.145341
    22  H   -0.075837
 Sum of Mulliken atomic charges =   0.00000

 Dipole moment (field-independent basis, Debye):
    X=              2.1009    Y=              1.1395    Z=             -2.1608  Tot=              3.2220
 Quadrupole moment (field-independent basis, Debye-Ang):
   XX=            -52.6839   YY=            -63.2482   ZZ=            -63.0480
   XY=              9.8401   XZ=              6.6650   YZ=             -2.3263

 Normal termination of Gaussian 09 at Tue Feb 14 04:56:51 2017.
