 Gaussian 09, Revision A.02,
 Gaussian 09:  EM64L-G09RevA.02 11-Jun-2009

 ----------------------------------------------------------------------
 #MP2/cc-pvTZ density=MP2, maxdisk=16GB, pop=(minimal, MK), 5d, punch=m
 o
 ----------------------------------------------------------------------

 -----------------
 Generated by mdgx
 -----------------
 Symbolic Z-matrix:
 Charge =  0 Multiplicity = 1

                         Standard orientation:
 ---------------------------------------------------------------------
 Center     Atomic      Atomic             Coordinates (Angstroms)
 Number     Number       Type             X           Y           Z
 ---------------------------------------------------------------------
      1          1           0       -2.869643   -1.950422    0.697318
      2          6           0       -2.779644   -1.235626   -0.120647
      3          1           0       -3.730524   -0.707341   -0.190246
      4          1           0       -2.496818   -1.783828   -1.019304
      5          6           0       -1.665268   -0.316530    0.210166
      6          8           0       -1.156099   -0.329656    1.338309
      7          7           0       -1.137248    0.401488   -0.807226
      8          1           0       -1.809981    0.655257   -1.516544
      9          6           0        0.110137    1.127592   -0.641933
     10          1           0        0.373059    1.560483   -1.607115
     11          6           0       -0.131908    2.373545    0.224265
     12          1           0       -1.014949    2.908308   -0.125547
     13          1           0       -0.354636    2.001240    1.224206
     14          1           0        0.604061    3.177054    0.252945
     15          6           0        1.308751    0.351891   -0.166208
     16          8           0        2.208370    0.896428    0.464224
     17          7           0        1.274427   -0.975149   -0.483160
     18          1           0        0.389953   -1.415290   -0.693117
     19          6           0        2.206029   -1.998196    0.011272
     20          1           0        3.162332   -1.618698    0.371223
     21          1           0        1.755244   -2.430861    0.904408
     22          1           0        2.324903   -2.730510   -0.787281
 ---------------------------------------------------------------------

 SCF Done:  E(RHF) =  -493.005623150     A.U. after   14 cycles
 E2 =    -0.1890383989D+01 EUMP2 =    -0.49489600713833D+03

 The electronic state is 1-A.
 Alpha  occ. eigenvalues --  -20.52586 -20.51063 -15.60071 -15.57547 -11.35802
 Alpha  occ. eigenvalues --  -11.34657 -11.28630 -11.25481 -11.24699 -11.20804
 Alpha  occ. eigenvalues --   -1.38828  -1.36755  -1.25467  -1.21639  -1.06254
 Alpha  occ. eigenvalues --   -1.00269  -0.95474  -0.87558  -0.81100  -0.77446
 Alpha  occ. eigenvalues --   -0.72397  -0.69964  -0.65553  -0.64314  -0.62739
 Alpha  occ. eigenvalues --   -0.61687  -0.59963  -0.58573  -0.57635  -0.56218
 Alpha  occ. eigenvalues --   -0.54197  -0.53056  -0.51510  -0.50729  -0.49150
 Alpha  occ. eigenvalues --   -0.43464  -0.42408  -0.40350  -0.38406
 Alpha virt. eigenvalues --    0.10696   0.13560   0.15469   0.15566   0.17820
 Alpha virt. eigenvalues --    0.18362   0.19335   0.20948   0.21300   0.21887
 Alpha virt. eigenvalues --    0.22295   0.23575   0.24915   0.26198   0.27999

 Mulliken atomic charges:
              1
     1  H    0.153993
     2  C   -0.384575
     3  H    0.141009
     4  H    0.120520
     5  C    0.148709
     6  O   -0.306310
     7  N   -0.185665
     8  H    0.188047
     9  C   -0.030768
    10  H    0.150184
    11  C   -0.386055
    12  H    0.101451
    13  H    0.150124
    14  H    0.145792
    15  C    0.149338
    16  O   -0.306080
    17  N   -0.146137
    18  H    0.179497
    19  C   -0.278586
    20  H    0.151025
    21  H    0.121965
    22  H    0.122521
 Sum of Mulliken atomic charges =   0.00000

 Dipole moment (field-independent basis, Debye):
    X=             -3.3990    Y=             -1.7709    Z=             -3.9990  Tot=              5.5391
 Quadrupole moment (field-independent basis, Debye-Ang):
   XX=            -60.5120   YY=            -56.2116   ZZ=            -63.7555
   XY=             -5.1842   XZ=              2.6764   YZ=             -1.8823

 Normal termination of Gaussian 09 at Mon Mar 20 02:16:50 2017.
