 Gaussian 09, Revision A.02,
 Gaussian 09:  EM64L-G09RevA.02 11-Jun-2009

 ----------------------------------------------------------------------
 # b3lyp/6-31G* Opt=(ModRedundant, maxcycles=1000, calcfc) geom=nocrowd
 ----------------------------------------------------------------------

 ------------------
 Phi Psi fixed scan
 ------------------
 Symbolic Z-matrix:
 Charge =  0 Multiplicity = 1

 SCF Done:  E(RB3LYP) =  -495.812158657     A.U. after   15 cycles

  Exact polarizability:   0.000   0.000   0.000   0.000   0.000   0.000
 Approx polarizability: 117.657  -0.678 131.284  -6.953  -3.885  88.795

 SCF Done:  E(RB3LYP) =  -495.822095864     A.U. after   13 cycles
 SCF Done:  E(RB3LYP) =  -495.833272493     A.U. after   16 cycles
 SCF Done:  E(RB3LYP) =  -495.824446048     A.U. after   13 cycles
 SCF Done:  E(RB3LYP) =  -495.835971333     A.U. after   13 cycles
 SCF Done:  E(RB3LYP) =  -495.837143736     A.U. after   11 cycles
 SCF Done:  E(RB3LYP) =  -495.838627443     A.U. after   11 cycles
 SCF Done:  E(RB3LYP) =  -495.839513980     A.U. after   12 cycles
 SCF Done:  E(RB3LYP) =  -495.839626922     A.U. after   12 cycles
 SCF Done:  E(RB3LYP) =  -495.839960274     A.U. after   12 cycles
 SCF Done:  E(RB3LYP) =  -495.840250531     A.U. after   10 cycles
 SCF Done:  E(RB3LYP) =  -495.840257864     A.U. after   10 cycles
 SCF Done:  E(RB3LYP) =  -495.840264876     A.U. after   11 cycles
 SCF Done:  E(RB3LYP) =  -495.840275173     A.U. after   11 cycles
 SCF Done:  E(RB3LYP) =  -495.840281980     A.U. after   11 cycles
 SCF Done:  E(RB3LYP) =  -495.840284242     A.U. after   10 cycles
 SCF Done:  E(RB3LYP) =  -495.840284892     A.U. after    9 cycles
 SCF Done:  E(RB3LYP) =  -495.840285922     A.U. after    9 cycles
 SCF Done:  E(RB3LYP) =  -495.840287232     A.U. after   10 cycles
 SCF Done:  E(RB3LYP) =  -495.840287415     A.U. after    9 cycles
 Optimization completed.
    -- Stationary point found.

                         Standard orientation:
 ---------------------------------------------------------------------
 Center     Atomic      Atomic             Coordinates (Angstroms)
 Number     Number       Type             X           Y           Z
 ---------------------------------------------------------------------
      1          1           0       -3.671666   -1.687320    0.514659
      2          6           0       -3.030315   -1.411454   -0.324696
      3          1           0       -3.677706   -1.081417   -1.145997
      4          1           0       -2.472770   -2.292591   -0.660176
      5          6           0       -2.138139   -0.250307    0.109631
      6          8           0       -2.525594    0.585304    0.908456
      7          7           0       -0.884697   -0.265538   -0.476627
      8          1           0       -0.787958   -0.948517   -1.218292
      9          6           0        0.114173    0.815635   -0.563369
     10          1           0        0.175567    1.124949   -1.616441
     11          6           0       -0.192201    2.068204    0.267356
     12          1           0       -0.271639    1.838677    1.331424
     13          1           0        0.636342    2.763220    0.111207
     14          1           0       -1.127271    2.533716   -0.046159
     15          6           0        1.541940    0.320062   -0.225380
     16          8           0        2.493386    1.084458   -0.328689
     17          7           0        1.662728   -1.000909    0.092728
     18          1           0        0.810023   -1.477992    0.353828
     19          6           0        2.936258   -1.566883    0.505649
     20          1           0        3.729658   -0.969043    0.055028
     21          1           0        3.063040   -1.546263    1.596020
     22          1           0        3.015537   -2.601933    0.158913
 ---------------------------------------------------------------------

 The electronic state is 1-A.
 Alpha  occ. eigenvalues --  -19.11691 -19.11042 -14.37214 -14.36338 -10.29822
 Alpha  occ. eigenvalues --  -10.28440 -10.24254 -10.22007 -10.19998 -10.17315
 Alpha  occ. eigenvalues --   -1.03766  -1.03031  -0.93640  -0.91538  -0.78209
 Alpha  occ. eigenvalues --   -0.73113  -0.71185  -0.64667  -0.58772  -0.56428
 Alpha  occ. eigenvalues --   -0.53724  -0.51235  -0.47396  -0.45738  -0.45260
 Alpha  occ. eigenvalues --   -0.44609  -0.42299  -0.41317  -0.40648  -0.39429
 Alpha  occ. eigenvalues --   -0.39192  -0.37510  -0.36808  -0.36267  -0.34901
 Alpha  occ. eigenvalues --   -0.27942  -0.25705  -0.25262  -0.23874
 Alpha virt. eigenvalues --    0.01782   0.02514   0.05567   0.09947   0.11719
 Alpha virt. eigenvalues --    0.13081   0.13604   0.13887   0.15528   0.16079
 Alpha virt. eigenvalues --    0.17079   0.17634   0.17750   0.18820   0.18944

 Mulliken atomic charges:
              1
     1  H    0.191341
     2  C   -0.544029
     3  H    0.184621
     4  H    0.146059
     5  C    0.587917
     6  O   -0.485997
     7  N   -0.636388
     8  H    0.324218
     9  C   -0.030924
    10  H    0.170964
    11  C   -0.437575
    12  H    0.169144
    13  H    0.173109
    14  H    0.166144
    15  C    0.595768
    16  O   -0.520557
    17  N   -0.593694
    18  H    0.332250
    19  C   -0.307993
    20  H    0.200500
    21  H    0.162175
    22  H    0.152948
 Sum of Mulliken atomic charges =   0.00000

 Dipole moment (field-independent basis, Debye):
    X=             -0.7912    Y=             -4.2886    Z=             -1.7265  Tot=              4.6903
 Quadrupole moment (field-independent basis, Debye-Ang):
   XX=            -68.1195   YY=            -57.4295   ZZ=            -59.1286
   XY=             -1.9979   XZ=              7.7640   YZ=             -1.0291

 Normal termination of Gaussian 09 at Fri Feb 10 19:21:59 2017.
