 Gaussian 09, Revision A.02,
 Gaussian 09:  EM64L-G09RevA.02 11-Jun-2009

 ----------------------------------------------------------------------
 # b3lyp/6-31G* Opt=(ModRedundant, maxcycles=1000, calcfc) geom=nocrowd
 ----------------------------------------------------------------------

 ------------------
 Phi Psi fixed scan
 ------------------
 Symbolic Z-matrix:
 Charge =  0 Multiplicity = 1

 SCF Done:  E(RB3LYP) =  -495.816412260     A.U. after   16 cycles

  Exact polarizability:   0.000   0.000   0.000   0.000   0.000   0.000
 Approx polarizability: 113.917   0.047 107.273 -16.551   2.196 115.424

 SCF Done:  E(RB3LYP) =  -495.825613672     A.U. after   13 cycles
 SCF Done:  E(RB3LYP) =  -495.834977516     A.U. after   14 cycles
 SCF Done:  E(RB3LYP) =  -495.828722681     A.U. after   14 cycles
 SCF Done:  E(RB3LYP) =  -495.837611182     A.U. after   14 cycles
 SCF Done:  E(RB3LYP) =  -495.838267977     A.U. after   12 cycles
 SCF Done:  E(RB3LYP) =  -495.839138147     A.U. after   13 cycles
 SCF Done:  E(RB3LYP) =  -495.839416295     A.U. after   12 cycles
 SCF Done:  E(RB3LYP) =  -495.839365107     A.U. after   12 cycles
 SCF Done:  E(RB3LYP) =  -495.839416279     A.U. after   12 cycles
 SCF Done:  E(RB3LYP) =  -495.839834983     A.U. after   11 cycles
 SCF Done:  E(RB3LYP) =  -495.839924478     A.U. after   11 cycles
 SCF Done:  E(RB3LYP) =  -495.839950564     A.U. after   11 cycles
 SCF Done:  E(RB3LYP) =  -495.839978033     A.U. after   11 cycles
 SCF Done:  E(RB3LYP) =  -495.839983085     A.U. after   10 cycles
 SCF Done:  E(RB3LYP) =  -495.839986528     A.U. after   10 cycles
 SCF Done:  E(RB3LYP) =  -495.839988199     A.U. after   10 cycles
 SCF Done:  E(RB3LYP) =  -495.839988495     A.U. after    8 cycles
 SCF Done:  E(RB3LYP) =  -495.839988615     A.U. after    7 cycles
 SCF Done:  E(RB3LYP) =  -495.839988661     A.U. after    7 cycles
 Optimization completed.
    -- Stationary point found.

                         Standard orientation:
 ---------------------------------------------------------------------
 Center     Atomic      Atomic             Coordinates (Angstroms)
 Number     Number       Type             X           Y           Z
 ---------------------------------------------------------------------
      1          1           0        3.518320   -1.841395   -0.341102
      2          6           0        3.040874   -1.328770    0.497204
      3          1           0        3.832924   -0.857380    1.090210
      4          1           0        2.528421   -2.064115    1.126118
      5          6           0        2.125704   -0.240573   -0.059114
      6          8           0        2.460683    0.439680   -1.018377
      7          7           0        0.933055   -0.115844    0.613433
      8          1           0        0.820936   -0.714792    1.420844
      9          6           0       -0.110937    0.914924    0.498013
     10          1           0       -0.127139    1.486840    1.433444
     11          6           0        0.052925    1.901888   -0.664663
     12          1           0        0.061617    1.404926   -1.636494
     13          1           0       -0.793907    2.596225   -0.630526
     14          1           0        0.980980    2.467203   -0.575215
     15          6           0       -1.498412    0.233675    0.452926
     16          8           0       -2.365721    0.501945    1.275761
     17          7           0       -1.677091   -0.629016   -0.587622
     18          1           0       -0.876970   -0.840289   -1.167718
     19          6           0       -2.909723   -1.366420   -0.796788
     20          1           0       -3.640167   -0.989865   -0.079347
     21          1           0       -3.288910   -1.212350   -1.813318
     22          1           0       -2.770132   -2.442336   -0.632100
 ---------------------------------------------------------------------

 The electronic state is 1-A.
 Alpha  occ. eigenvalues --  -19.11340 -19.11151 -14.36957 -14.36432 -10.29449
 Alpha  occ. eigenvalues --  -10.28510 -10.24039 -10.22070 -10.19660 -10.18296
 Alpha  occ. eigenvalues --   -1.03475  -1.02957  -0.93233  -0.91732  -0.78431
 Alpha  occ. eigenvalues --   -0.73125  -0.70950  -0.65374  -0.58710  -0.56951
 Alpha  occ. eigenvalues --   -0.53579  -0.50962  -0.47116  -0.45417  -0.45244
 Alpha  occ. eigenvalues --   -0.44161  -0.42620  -0.41339  -0.40581  -0.39897
 Alpha  occ. eigenvalues --   -0.38995  -0.37989  -0.37583  -0.36310  -0.35613
 Alpha  occ. eigenvalues --   -0.27105  -0.25348  -0.25113  -0.23920
 Alpha virt. eigenvalues --    0.01769   0.02834   0.06411   0.08634   0.11710
 Alpha virt. eigenvalues --    0.12361   0.13694   0.14869   0.15920   0.16014
 Alpha virt. eigenvalues --    0.16461   0.17391   0.17803   0.18333   0.19135

 Mulliken atomic charges:
              1
     1  H    0.187161
     2  C   -0.539220
     3  H    0.186351
     4  H    0.145775
     5  C    0.584663
     6  O   -0.503302
     7  N   -0.614874
     8  H    0.328520
     9  C   -0.032897
    10  H    0.169473
    11  C   -0.438332
    12  H    0.161103
    13  H    0.155674
    14  H    0.181210
    15  C    0.572665
    16  O   -0.514200
    17  N   -0.573207
    18  H    0.334720
    19  C   -0.310719
    20  H    0.203653
    21  H    0.160045
    22  H    0.155737
 Sum of Mulliken atomic charges =   0.00000

 Dipole moment (field-independent basis, Debye):
    X=              0.4563    Y=             -2.7613    Z=              0.0754  Tot=              2.7997
 Quadrupole moment (field-independent basis, Debye-Ang):
   XX=            -66.8932   YY=            -56.2729   ZZ=            -61.5389
   XY=             -0.0243   XZ=             12.9298   YZ=              0.3147

 Normal termination of Gaussian 09 at Fri Feb 10 19:55:48 2017.
