 Gaussian 09, Revision A.02,
 Gaussian 09:  EM64L-G09RevA.02 11-Jun-2009

 ----------------------------------------------------------------------
 # b3lyp/6-31G* Opt=(ModRedundant, maxcycles=1000, calcfc) geom=nocrowd
 ----------------------------------------------------------------------

 ------------------
 Phi Psi fixed scan
 ------------------
 Symbolic Z-matrix:
 Charge =  0 Multiplicity = 1

 SCF Done:  E(RB3LYP) =  -495.818004816     A.U. after   14 cycles

  Exact polarizability:   0.000   0.000   0.000   0.000   0.000   0.000
 Approx polarizability: 119.090  -4.245 132.235  -4.231  -2.236  85.465

 SCF Done:  E(RB3LYP) =  -495.827394647     A.U. after   13 cycles
 SCF Done:  E(RB3LYP) =  -495.836839658     A.U. after   16 cycles
 SCF Done:  E(RB3LYP) =  -495.833979139     A.U. after   16 cycles
 SCF Done:  E(RB3LYP) =  -495.839841225     A.U. after   16 cycles
 SCF Done:  E(RB3LYP) =  -495.840759341     A.U. after   11 cycles
 SCF Done:  E(RB3LYP) =  -495.842009651     A.U. after   12 cycles
 SCF Done:  E(RB3LYP) =  -495.842379484     A.U. after   12 cycles
 SCF Done:  E(RB3LYP) =  -495.842863056     A.U. after   12 cycles
 SCF Done:  E(RB3LYP) =  -495.841919900     A.U. after   12 cycles
 SCF Done:  E(RB3LYP) =  -495.843456834     A.U. after   12 cycles
 SCF Done:  E(RB3LYP) =  -495.843482138     A.U. after   11 cycles
 SCF Done:  E(RB3LYP) =  -495.843491411     A.U. after   11 cycles
 SCF Done:  E(RB3LYP) =  -495.843494750     A.U. after   10 cycles
 SCF Done:  E(RB3LYP) =  -495.843496187     A.U. after   10 cycles
 SCF Done:  E(RB3LYP) =  -495.843496245     A.U. after    9 cycles
 SCF Done:  E(RB3LYP) =  -495.843496308     A.U. after    7 cycles
 SCF Done:  E(RB3LYP) =  -495.843496334     A.U. after    6 cycles
 SCF Done:  E(RB3LYP) =  -495.843496356     A.U. after    6 cycles
 SCF Done:  E(RB3LYP) =  -495.843496366     A.U. after    6 cycles
 Optimization completed.
    -- Stationary point found.

                         Standard orientation:
 ---------------------------------------------------------------------
 Center     Atomic      Atomic             Coordinates (Angstroms)
 Number     Number       Type             X           Y           Z
 ---------------------------------------------------------------------
      1          1           0       -4.158402   -1.101571    0.074522
      2          6           0       -3.118734   -1.302961    0.343126
      3          1           0       -2.773558   -2.198399   -0.182942
      4          1           0       -3.086884   -1.500182    1.420984
      5          6           0       -2.289858   -0.056739    0.043601
      6          8           0       -2.731558    1.063867    0.270701
      7          7           0       -1.064312   -0.328659   -0.506306
      8          1           0       -0.776213   -1.302780   -0.514626
      9          6           0        0.101225    0.544299   -0.635107
     10          1           0        0.258000    0.765372   -1.703659
     11          6           0       -0.002009    1.883198    0.111447
     12          1           0       -0.004550    1.739800    1.196303
     13          1           0        0.839899    2.531960   -0.159109
     14          1           0       -0.925728    2.393158   -0.154970
     15          6           0        1.318502   -0.318764   -0.199672
     16          8           0        1.233748   -1.544985   -0.161240
     17          7           0        2.469000    0.350016    0.067974
     18          1           0        2.455020    1.358396    0.072564
     19          6           0        3.703826   -0.325845    0.432525
     20          1           0        3.542483   -1.397135    0.310473
     21          1           0        4.525551   -0.005742   -0.217467
     22          1           0        3.976335   -0.122559    1.475046
 ---------------------------------------------------------------------

 The electronic state is 1-A.
 Alpha  occ. eigenvalues --  -19.12619 -19.09790 -14.37602 -14.34757 -10.29789
 Alpha  occ. eigenvalues --  -10.27968 -10.24439 -10.22800 -10.18686 -10.18170
 Alpha  occ. eigenvalues --   -1.04663  -1.01652  -0.93393  -0.91339  -0.78205
 Alpha  occ. eigenvalues --   -0.72519  -0.70993  -0.65625  -0.60041  -0.55234
 Alpha  occ. eigenvalues --   -0.53853  -0.49837  -0.47402  -0.46052  -0.45104
 Alpha  occ. eigenvalues --   -0.44137  -0.42800  -0.41302  -0.40301  -0.39985
 Alpha  occ. eigenvalues --   -0.38851  -0.38441  -0.36973  -0.36658  -0.34386
 Alpha  occ. eigenvalues --   -0.26848  -0.26654  -0.24427  -0.23423
 Alpha virt. eigenvalues --    0.01634   0.03819   0.06322   0.10577   0.11069
 Alpha virt. eigenvalues --    0.13446   0.13850   0.14780   0.14962   0.15692
 Alpha virt. eigenvalues --    0.16045   0.17576   0.18442   0.19273   0.20441

 Mulliken atomic charges:
              1
     1  H    0.181572
     2  C   -0.536683
     3  H    0.152844
     4  H    0.179076
     5  C    0.589197
     6  O   -0.515167
     7  N   -0.611734
     8  H    0.349484
     9  C   -0.020157
    10  H    0.170075
    11  C   -0.471836
    12  H    0.163134
    13  H    0.123118
    14  H    0.215312
    15  C    0.603625
    16  O   -0.531147
    17  N   -0.594469
    18  H    0.334498
    19  C   -0.313356
    20  H    0.207496
    21  H    0.160985
    22  H    0.164131
 Sum of Mulliken atomic charges =   0.00000

 Dipole moment (field-independent basis, Debye):
    X=              3.7734    Y=              0.5240    Z=             -0.1114  Tot=              3.8112
 Quadrupole moment (field-independent basis, Debye-Ang):
   XX=            -56.8142   YY=            -62.1715   ZZ=            -59.3983
   XY=             12.1204   XZ=              1.7220   YZ=             -1.4311

 Normal termination of Gaussian 09 at Fri Feb 10 19:36:56 2017.
