 Gaussian 09, Revision A.02,
 Gaussian 09:  EM64L-G09RevA.02 11-Jun-2009

 ----------------------------------------------------------------------
 # b3lyp/6-31G* Opt=(ModRedundant, maxcycles=1000, calcfc) geom=nocrowd
 ----------------------------------------------------------------------

 ------------------
 Phi Psi fixed scan
 ------------------
 Symbolic Z-matrix:
 Charge =  0 Multiplicity = 1

 SCF Done:  E(RB3LYP) =  -495.817790782     A.U. after   15 cycles

  Exact polarizability:   0.000   0.000   0.000   0.000   0.000   0.000
 Approx polarizability: 121.141  -3.884 111.336 -14.021  -4.207 104.374

 SCF Done:  E(RB3LYP) =  -495.826606763     A.U. after   13 cycles
 SCF Done:  E(RB3LYP) =  -495.834931261     A.U. after   13 cycles
 SCF Done:  E(RB3LYP) =  -495.827048441     A.U. after   14 cycles
 SCF Done:  E(RB3LYP) =  -495.837665502     A.U. after   13 cycles
 SCF Done:  E(RB3LYP) =  -495.838328345     A.U. after   11 cycles
 SCF Done:  E(RB3LYP) =  -495.839170712     A.U. after   12 cycles
 SCF Done:  E(RB3LYP) =  -495.839825969     A.U. after   12 cycles
 SCF Done:  E(RB3LYP) =  -495.839760238     A.U. after   12 cycles
 SCF Done:  E(RB3LYP) =  -495.839827914     A.U. after   12 cycles
 SCF Done:  E(RB3LYP) =  -495.839383783     A.U. after   12 cycles
 SCF Done:  E(RB3LYP) =  -495.840351558     A.U. after   12 cycles
 SCF Done:  E(RB3LYP) =  -495.840482772     A.U. after   12 cycles
 SCF Done:  E(RB3LYP) =  -495.840588053     A.U. after   12 cycles
 SCF Done:  E(RB3LYP) =  -495.840649726     A.U. after   12 cycles
 SCF Done:  E(RB3LYP) =  -495.840686321     A.U. after   11 cycles
 SCF Done:  E(RB3LYP) =  -495.840694265     A.U. after   11 cycles
 SCF Done:  E(RB3LYP) =  -495.840696135     A.U. after    9 cycles
 SCF Done:  E(RB3LYP) =  -495.840696380     A.U. after    7 cycles
 SCF Done:  E(RB3LYP) =  -495.840696375     A.U. after    6 cycles
 Optimization completed.
    -- Stationary point found.

                         Standard orientation:
 ---------------------------------------------------------------------
 Center     Atomic      Atomic             Coordinates (Angstroms)
 Number     Number       Type             X           Y           Z
 ---------------------------------------------------------------------
      1          1           0       -4.134142   -1.210364   -0.030614
      2          6           0       -3.065604   -1.422357    0.029092
      3          1           0       -2.801312   -2.183973   -0.712622
      4          1           0       -2.844758   -1.828539    1.023829
      5          6           0       -2.296517   -0.121575   -0.176127
      6          8           0       -2.821681    0.972057   -0.027183
      7          7           0       -0.989456   -0.308978   -0.581232
      8          1           0       -0.674473   -1.264903   -0.458495
      9          6           0        0.112138    0.646757   -0.408220
     10          1           0        0.349274    1.094113   -1.384642
     11          6           0       -0.144263    1.782961    0.599771
     12          1           0       -0.342693    1.367952    1.592179
     13          1           0        0.752484    2.410808    0.659769
     14          1           0       -0.997270    2.389114    0.299966
     15          6           0        1.325252   -0.155972    0.102001
     16          8           0        1.207188   -1.007471    0.976733
     17          7           0        2.505572    0.135506   -0.512595
     18          1           0        2.512243    0.853226   -1.223357
     19          6           0        3.771785   -0.448022   -0.102188
     20          1           0        3.550271   -1.222193    0.633469
     21          1           0        4.285415   -0.899026   -0.958255
     22          1           0        4.431343    0.300652    0.353192
 ---------------------------------------------------------------------

 The electronic state is 1-A.
 Alpha  occ. eigenvalues --  -19.12202 -19.10519 -14.37594 -14.35200 -10.29460
 Alpha  occ. eigenvalues --  -10.28231 -10.24089 -10.22753 -10.18461 -10.17808
 Alpha  occ. eigenvalues --   -1.04302  -1.02255  -0.93213  -0.91588  -0.78020
 Alpha  occ. eigenvalues --   -0.72605  -0.71246  -0.64618  -0.59627  -0.55658
 Alpha  occ. eigenvalues --   -0.53747  -0.49130  -0.47687  -0.46257  -0.45205
 Alpha  occ. eigenvalues --   -0.43942  -0.42704  -0.40790  -0.40212  -0.39972
 Alpha  occ. eigenvalues --   -0.38688  -0.38312  -0.36849  -0.36181  -0.34640
 Alpha  occ. eigenvalues --   -0.26488  -0.26164  -0.25315  -0.23792
 Alpha virt. eigenvalues --    0.01704   0.03064   0.06320   0.09123   0.11425
 Alpha virt. eigenvalues --    0.13697   0.13984   0.14538   0.15517   0.16082
 Alpha virt. eigenvalues --    0.16183   0.17245   0.18052   0.19051   0.20108

 Mulliken atomic charges:
              1
     1  H    0.184000
     2  C   -0.548390
     3  H    0.158925
     4  H    0.182081
     5  C    0.588814
     6  O   -0.499768
     7  N   -0.603409
     8  H    0.334517
     9  C    0.009717
    10  H    0.135325
    11  C   -0.452885
    12  H    0.170369
    13  H    0.132638
    14  H    0.202924
    15  C    0.560939
    16  O   -0.520629
    17  N   -0.582367
    18  H    0.329548
    19  C   -0.313430
    20  H    0.207108
    21  H    0.161210
    22  H    0.162762
 Sum of Mulliken atomic charges =   0.00000

 Dipole moment (field-independent basis, Debye):
    X=              3.8346    Y=             -0.4770    Z=             -2.0544  Tot=              4.3763
 Quadrupole moment (field-independent basis, Debye-Ang):
   XX=            -56.6356   YY=            -59.7121   ZZ=            -60.8617
   XY=             10.1496   XZ=             -4.4721   YZ=              0.9163

 Normal termination of Gaussian 09 at Fri Feb 10 19:40:58 2017.
