 Gaussian 09, Revision A.02,
 Gaussian 09:  EM64L-G09RevA.02 11-Jun-2009

 ----------------------------------------------------------------------
 # b3lyp/6-31G* Opt=(ModRedundant, maxcycles=1000, calcfc) geom=nocrowd
 ----------------------------------------------------------------------

 ------------------
 Phi Psi fixed scan
 ------------------
 Symbolic Z-matrix:
 Charge =  0 Multiplicity = 1

 SCF Done:  E(RB3LYP) =  -495.811922951     A.U. after   15 cycles

  Exact polarizability:   0.000   0.000   0.000   0.000   0.000   0.000
 Approx polarizability: 116.575 -12.540 122.280  -3.982  14.081  98.455

 SCF Done:  E(RB3LYP) =  -495.821520305     A.U. after   13 cycles
 SCF Done:  E(RB3LYP) =  -495.831043855     A.U. after   13 cycles
 SCF Done:  E(RB3LYP) =  -495.826939293     A.U. after   14 cycles
 SCF Done:  E(RB3LYP) =  -495.834256133     A.U. after   14 cycles
 SCF Done:  E(RB3LYP) =  -495.834894612     A.U. after   12 cycles
 SCF Done:  E(RB3LYP) =  -495.835735635     A.U. after   12 cycles
 SCF Done:  E(RB3LYP) =  -495.836158167     A.U. after   12 cycles
 SCF Done:  E(RB3LYP) =  -495.836083061     A.U. after   12 cycles
 SCF Done:  E(RB3LYP) =  -495.836175819     A.U. after   11 cycles
 SCF Done:  E(RB3LYP) =  -495.836378253     A.U. after   13 cycles
 SCF Done:  E(RB3LYP) =  -495.836450000     A.U. after   10 cycles
 SCF Done:  E(RB3LYP) =  -495.836506401     A.U. after   11 cycles
 SCF Done:  E(RB3LYP) =  -495.836534687     A.U. after   10 cycles
 SCF Done:  E(RB3LYP) =  -495.836555312     A.U. after   11 cycles
 SCF Done:  E(RB3LYP) =  -495.836561660     A.U. after    9 cycles
 SCF Done:  E(RB3LYP) =  -495.836584892     A.U. after   11 cycles
 SCF Done:  E(RB3LYP) =  -495.836594712     A.U. after   11 cycles
 SCF Done:  E(RB3LYP) =  -495.836596153     A.U. after   10 cycles
 SCF Done:  E(RB3LYP) =  -495.836596178     A.U. after    6 cycles
 Optimization completed.
    -- Stationary point found.

                         Standard orientation:
 ---------------------------------------------------------------------
 Center     Atomic      Atomic             Coordinates (Angstroms)
 Number     Number       Type             X           Y           Z
 ---------------------------------------------------------------------
      1          1           0       -3.746560   -1.833294    0.015328
      2          6           0       -2.726583   -1.740837    0.394949
      3          1           0       -2.132781   -2.592683    0.046613
      4          1           0       -2.773503   -1.777736    1.489397
      5          6           0       -2.172316   -0.382897   -0.030776
      6          8           0       -2.878613    0.614127   -0.046079
      7          7           0       -0.844203   -0.412101   -0.385276
      8          1           0       -0.386190   -1.308736   -0.292879
      9          6           0        0.080574    0.717613   -0.602942
     10          1           0        0.288747    0.787309   -1.683309
     11          6           0       -0.415786    2.076239   -0.112649
     12          1           0       -0.589757    2.054863    0.964552
     13          1           0        0.364130    2.818079   -0.314200
     14          1           0       -1.337718    2.363656   -0.614200
     15          6           0        1.394846    0.343876    0.126776
     16          8           0        1.699774    0.787916    1.222400
     17          7           0        2.140724   -0.602805   -0.532063
     18          1           0        1.936202   -0.768646   -1.508453
     19          6           0        3.421761   -1.065315   -0.019410
     20          1           0        3.427380   -0.897884    1.058239
     21          1           0        3.546957   -2.132930   -0.224846
     22          1           0        4.263187   -0.516075   -0.461124
 ---------------------------------------------------------------------

 The electronic state is 1-A.
 Alpha  occ. eigenvalues --  -19.12277 -19.10418 -14.37542 -14.36245 -10.29356
 Alpha  occ. eigenvalues --  -10.28655 -10.24232 -10.22794 -10.19019 -10.16800
 Alpha  occ. eigenvalues --   -1.04270  -1.02396  -0.93428  -0.91821  -0.77953
 Alpha  occ. eigenvalues --   -0.72539  -0.71651  -0.64443  -0.59251  -0.56524
 Alpha  occ. eigenvalues --   -0.53728  -0.49849  -0.47995  -0.46537  -0.45505
 Alpha  occ. eigenvalues --   -0.43959  -0.42570  -0.40838  -0.40135  -0.39677
 Alpha  occ. eigenvalues --   -0.38101  -0.37735  -0.36912  -0.35984  -0.34982
 Alpha  occ. eigenvalues --   -0.27539  -0.26440  -0.24343  -0.23890
 Alpha virt. eigenvalues --    0.00819   0.03797   0.05784   0.08351   0.11503
 Alpha virt. eigenvalues --    0.12533   0.13423   0.14625   0.15566   0.15820
 Alpha virt. eigenvalues --    0.17002   0.17596   0.18361   0.19035   0.20132

 Mulliken atomic charges:
              1
     1  H    0.185970
     2  C   -0.540036
     3  H    0.142111
     4  H    0.185971
     5  C    0.598087
     6  O   -0.500533
     7  N   -0.610359
     8  H    0.322792
     9  C   -0.008828
    10  H    0.136045
    11  C   -0.434814
    12  H    0.177941
    13  H    0.140575
    14  H    0.183087
    15  C    0.569127
    16  O   -0.495987
    17  N   -0.592438
    18  H    0.326754
    19  C   -0.310097
    20  H    0.204256
    21  H    0.156609
    22  H    0.163765
 Sum of Mulliken atomic charges =   0.00000

 Dipole moment (field-independent basis, Debye):
    X=              3.0060    Y=             -3.8316    Z=             -2.7330  Tot=              5.5845
 Quadrupole moment (field-independent basis, Debye-Ang):
   XX=            -63.6868   YY=            -57.2770   ZZ=            -60.1305
   XY=              1.4919   XZ=             -6.4816   YZ=             -1.7999

 Normal termination of Gaussian 09 at Fri Feb 10 19:49:49 2017.
