 Gaussian 09, Revision A.02,
 Gaussian 09:  EM64L-G09RevA.02 11-Jun-2009

 ----------------------------------------------------------------------
 # b3lyp/6-31G* Opt=(ModRedundant, maxcycles=1000, calcfc) geom=nocrowd
 ----------------------------------------------------------------------

 ------------------
 Phi Psi fixed scan
 ------------------
 Symbolic Z-matrix:
 Charge =  0 Multiplicity = 1

 SCF Done:  E(RB3LYP) =  -495.814392666     A.U. after   15 cycles

  Exact polarizability:   0.000   0.000   0.000   0.000   0.000   0.000
 Approx polarizability: 112.133   5.463 103.227 -14.199  -5.495 121.558

 SCF Done:  E(RB3LYP) =  -495.824119212     A.U. after   12 cycles
 SCF Done:  E(RB3LYP) =  -495.834041945     A.U. after   14 cycles
 SCF Done:  E(RB3LYP) =  -495.831047334     A.U. after   14 cycles
 SCF Done:  E(RB3LYP) =  -495.836793756     A.U. after   14 cycles
 SCF Done:  E(RB3LYP) =  -495.837441209     A.U. after   12 cycles
 SCF Done:  E(RB3LYP) =  -495.838295240     A.U. after   12 cycles
 SCF Done:  E(RB3LYP) =  -495.838554701     A.U. after   12 cycles
 SCF Done:  E(RB3LYP) =  -495.838524249     A.U. after   11 cycles
 SCF Done:  E(RB3LYP) =  -495.834971106     A.U. after   13 cycles
 SCF Done:  E(RB3LYP) =  -495.839016348     A.U. after   12 cycles
 SCF Done:  E(RB3LYP) =  -495.839069477     A.U. after   11 cycles
 SCF Done:  E(RB3LYP) =  -495.839090005     A.U. after   12 cycles
 SCF Done:  E(RB3LYP) =  -495.839107067     A.U. after   11 cycles
 SCF Done:  E(RB3LYP) =  -495.839111875     A.U. after   11 cycles
 SCF Done:  E(RB3LYP) =  -495.839114450     A.U. after   10 cycles
 SCF Done:  E(RB3LYP) =  -495.839115618     A.U. after    9 cycles
 SCF Done:  E(RB3LYP) =  -495.839116032     A.U. after    8 cycles
 SCF Done:  E(RB3LYP) =  -495.839116102     A.U. after    7 cycles
 SCF Done:  E(RB3LYP) =  -495.839116078     A.U. after    6 cycles
 Optimization completed.
    -- Stationary point found.

                         Standard orientation:
 ---------------------------------------------------------------------
 Center     Atomic      Atomic             Coordinates (Angstroms)
 Number     Number       Type             X           Y           Z
 ---------------------------------------------------------------------
      1          1           0        3.449254   -1.834800   -0.655726
      2          6           0        3.031085   -1.413417    0.261717
      3          1           0        3.867034   -1.034738    0.860455
      4          1           0        2.529283   -2.205898    0.826327
      5          6           0        2.124492   -0.243463   -0.113321
      6          8           0        2.457370    0.566391   -0.968031
      7          7           0        0.945381   -0.202972    0.588143
      8          1           0        0.827712   -0.911514    1.300363
      9          6           0       -0.097463    0.835936    0.621514
     10          1           0       -0.107506    1.266302    1.630033
     11          6           0        0.069686    1.978725   -0.384999
     12          1           0        0.099296    1.636393   -1.421265
     13          1           0       -0.778953    2.661114   -0.263007
     14          1           0        0.994825    2.526987   -0.204207
     15          6           0       -1.469216    0.128009    0.511773
     16          8           0       -2.193148   -0.001602    1.492634
     17          7           0       -1.788166   -0.332947   -0.730440
     18          1           0       -1.093922   -0.255269   -1.460178
     19          6           0       -3.000358   -1.084778   -1.002042
     20          1           0       -3.632119   -1.017590   -0.115416
     21          1           0       -3.533905   -0.662442   -1.860609
     22          1           0       -2.784635   -2.141489   -1.205363
 ---------------------------------------------------------------------

 The electronic state is 1-A.
 Alpha  occ. eigenvalues --  -19.11452 -19.10905 -14.36772 -14.36529 -10.29240
 Alpha  occ. eigenvalues --  -10.28609 -10.24061 -10.22104 -10.19457 -10.18501
 Alpha  occ. eigenvalues --   -1.03478  -1.02818  -0.93001  -0.91870  -0.78424
 Alpha  occ. eigenvalues --   -0.73023  -0.70901  -0.65583  -0.58840  -0.56828
 Alpha  occ. eigenvalues --   -0.53480  -0.50974  -0.46948  -0.45389  -0.45206
 Alpha  occ. eigenvalues --   -0.44266  -0.42547  -0.41332  -0.40406  -0.39853
 Alpha  occ. eigenvalues --   -0.39106  -0.38054  -0.37637  -0.36431  -0.35607
 Alpha  occ. eigenvalues --   -0.26997  -0.25388  -0.24899  -0.23906
 Alpha virt. eigenvalues --    0.01623   0.03209   0.06657   0.08141   0.11547
 Alpha virt. eigenvalues --    0.12467   0.13611   0.15345   0.15545   0.16065
 Alpha virt. eigenvalues --    0.16475   0.17699   0.17781   0.18628   0.19162

 Mulliken atomic charges:
              1
     1  H    0.186212
     2  C   -0.537943
     3  H    0.185756
     4  H    0.145971
     5  C    0.586746
     6  O   -0.508053
     7  N   -0.610281
     8  H    0.331562
     9  C   -0.028824
    10  H    0.169577
    11  C   -0.443012
    12  H    0.159023
    13  H    0.152293
    14  H    0.181867
    15  C    0.575024
    16  O   -0.514387
    17  N   -0.575801
    18  H    0.334938
    19  C   -0.310970
    20  H    0.203546
    21  H    0.159457
    22  H    0.157299
 Sum of Mulliken atomic charges =   0.00000

 Dipole moment (field-independent basis, Debye):
    X=             -0.0169    Y=             -1.9775    Z=             -0.7051  Tot=              2.0995
 Quadrupole moment (field-independent basis, Debye-Ang):
   XX=            -65.2183   YY=            -56.6571   ZZ=            -61.9268
   XY=             -3.4016   XZ=             13.3063   YZ=              1.5747

 Normal termination of Gaussian 09 at Fri Feb 10 19:38:00 2017.
