 Gaussian 09, Revision A.02,
 Gaussian 09:  EM64L-G09RevA.02 11-Jun-2009

 ----------------------------------------------------------------------
 # b3lyp/6-31G* Opt=(ModRedundant, maxcycles=1000, calcfc) geom=nocrowd
 ----------------------------------------------------------------------

 ------------------
 Phi Psi fixed scan
 ------------------
 Symbolic Z-matrix:
 Charge =  0 Multiplicity = 1

 SCF Done:  E(RB3LYP) =  -495.819387670     A.U. after   14 cycles

  Exact polarizability:   0.000   0.000   0.000   0.000   0.000   0.000
 Approx polarizability: 119.496  -4.252 128.777  -7.036   0.828  87.757

 SCF Done:  E(RB3LYP) =  -495.828530674     A.U. after   13 cycles
 SCF Done:  E(RB3LYP) =  -495.837164977     A.U. after   13 cycles
 SCF Done:  E(RB3LYP) =  -495.829754600     A.U. after   15 cycles
 SCF Done:  E(RB3LYP) =  -495.839692589     A.U. after   13 cycles
 SCF Done:  E(RB3LYP) =  -495.840865075     A.U. after   12 cycles
 SCF Done:  E(RB3LYP) =  -495.842395741     A.U. after   16 cycles
 SCF Done:  E(RB3LYP) =  -495.843309964     A.U. after   12 cycles
 SCF Done:  E(RB3LYP) =  -495.843232579     A.U. after   16 cycles
 SCF Done:  E(RB3LYP) =  -495.843310337     A.U. after   16 cycles
 SCF Done:  E(RB3LYP) =  -495.843543388     A.U. after   16 cycles
 SCF Done:  E(RB3LYP) =  -495.842461358     A.U. after   13 cycles
 SCF Done:  E(RB3LYP) =  -495.843581551     A.U. after   12 cycles
 SCF Done:  E(RB3LYP) =  -495.843628278     A.U. after   16 cycles
 SCF Done:  E(RB3LYP) =  -495.843642979     A.U. after   10 cycles
 SCF Done:  E(RB3LYP) =  -495.843648655     A.U. after   10 cycles
 SCF Done:  E(RB3LYP) =  -495.843649317     A.U. after    8 cycles
 SCF Done:  E(RB3LYP) =  -495.843649574     A.U. after    7 cycles
 SCF Done:  E(RB3LYP) =  -495.843649627     A.U. after    7 cycles
 SCF Done:  E(RB3LYP) =  -495.843649622     A.U. after    7 cycles
 Optimization completed.
    -- Stationary point found.

                         Standard orientation:
 ---------------------------------------------------------------------
 Center     Atomic      Atomic             Coordinates (Angstroms)
 Number     Number       Type             X           Y           Z
 ---------------------------------------------------------------------
      1          1           0       -4.178847   -1.075206    0.146056
      2          6           0       -3.119174   -1.311640    0.259292
      3          1           0       -2.857571   -2.147351   -0.397794
      4          1           0       -2.949369   -1.627157    1.295900
      5          6           0       -2.305487   -0.052414   -0.025265
      6          8           0       -2.766643    1.064285    0.175804
      7          7           0       -1.059017   -0.310133   -0.543362
      8          1           0       -0.758718   -1.280080   -0.485552
      9          6           0        0.105747    0.571168   -0.565457
     10          1           0        0.296510    0.890809   -1.602112
     11          6           0       -0.016520    1.831952    0.310381
     12          1           0       -0.092253    1.567984    1.369856
     13          1           0        0.860682    2.475129    0.176855
     14          1           0       -0.908654    2.394746    0.042269
     15          6           0        1.313259   -0.304165   -0.131073
     16          8           0        1.182293   -1.502247    0.109727
     17          7           0        2.512001    0.333113   -0.084864
     18          1           0        2.541838    1.323023   -0.278964
     19          6           0        3.750071   -0.337960    0.275985
     20          1           0        3.525689   -1.397706    0.399592
     21          1           0        4.501710   -0.217237   -0.512144
     22          1           0        4.155518    0.054241    1.216194
 ---------------------------------------------------------------------

 The electronic state is 1-A.
 Alpha  occ. eigenvalues --  -19.12808 -19.09976 -14.37630 -14.34590 -10.29861
 Alpha  occ. eigenvalues --  -10.27946 -10.24346 -10.22855 -10.18542 -10.18140
 Alpha  occ. eigenvalues --   -1.04790  -1.01760  -0.93455  -0.91303  -0.78139
 Alpha  occ. eigenvalues --   -0.72545  -0.70991  -0.65348  -0.60027  -0.55146
 Alpha  occ. eigenvalues --   -0.53852  -0.49497  -0.47559  -0.46129  -0.45050
 Alpha  occ. eigenvalues --   -0.44178  -0.42890  -0.41148  -0.40381  -0.40127
 Alpha  occ. eigenvalues --   -0.38764  -0.38366  -0.36858  -0.36631  -0.34412
 Alpha  occ. eigenvalues --   -0.26901  -0.26672  -0.24700  -0.23427
 Alpha virt. eigenvalues --    0.01624   0.03566   0.05991   0.10597   0.11116
 Alpha virt. eigenvalues --    0.13622   0.14151   0.14665   0.15025   0.15716
 Alpha virt. eigenvalues --    0.16162   0.17232   0.18583   0.19400   0.20209

 Mulliken atomic charges:
              1
     1  H    0.181528
     2  C   -0.540960
     3  H    0.157096
     4  H    0.178309
     5  C    0.585001
     6  O   -0.509852
     7  N   -0.610318
     8  H    0.348362
     9  C   -0.022121
    10  H    0.163140
    11  C   -0.458759
    12  H    0.162512
    13  H    0.120242
    14  H    0.213172
    15  C    0.598694
    16  O   -0.527791
    17  N   -0.590524
    18  H    0.332453
    19  C   -0.312897
    20  H    0.207657
    21  H    0.161395
    22  H    0.163658
 Sum of Mulliken atomic charges =   0.00000

 Dipole moment (field-independent basis, Debye):
    X=              3.9955    Y=              0.4222    Z=             -0.4946  Tot=              4.0481
 Quadrupole moment (field-independent basis, Debye-Ang):
   XX=            -56.4151   YY=            -61.9148   ZZ=            -59.6820
   XY=             11.9620   XZ=             -0.1291   YZ=             -0.8103

 Normal termination of Gaussian 09 at Fri Feb 10 19:32:55 2017.
