 Gaussian 09, Revision A.02,
 Gaussian 09:  EM64L-G09RevA.02 11-Jun-2009

 ----------------------------------------------------------------------
 # b3lyp/6-31G* Opt=(ModRedundant, maxcycles=1000, calcfc) geom=nocrowd
 ----------------------------------------------------------------------

 ------------------
 Phi Psi fixed scan
 ------------------
 Symbolic Z-matrix:
 Charge =  0 Multiplicity = 1

 SCF Done:  E(RB3LYP) =  -495.815756183     A.U. after   14 cycles

  Exact polarizability:   0.000   0.000   0.000   0.000   0.000   0.000
 Approx polarizability: 117.791  -3.104 134.239  -1.656  -5.395  85.422

 SCF Done:  E(RB3LYP) =  -495.825924340     A.U. after   13 cycles
 SCF Done:  E(RB3LYP) =  -495.835729764     A.U. after   13 cycles
 SCF Done:  E(RB3LYP) =  -495.837253600     A.U. after   15 cycles
 SCF Done:  E(RB3LYP) =  -495.837592317     A.U. after   13 cycles
 SCF Done:  E(RB3LYP) =  -495.840599314     A.U. after   13 cycles
 SCF Done:  E(RB3LYP) =  -495.841193649     A.U. after   12 cycles
 SCF Done:  E(RB3LYP) =  -495.842001955     A.U. after   16 cycles
 SCF Done:  E(RB3LYP) =  -495.842237093     A.U. after   12 cycles
 SCF Done:  E(RB3LYP) =  -495.842201093     A.U. after   11 cycles
 SCF Done:  E(RB3LYP) =  -495.842920087     A.U. after   11 cycles
 SCF Done:  E(RB3LYP) =  -495.843056434     A.U. after   11 cycles
 SCF Done:  E(RB3LYP) =  -495.843097120     A.U. after   11 cycles
 SCF Done:  E(RB3LYP) =  -495.843105009     A.U. after   10 cycles
 SCF Done:  E(RB3LYP) =  -495.843112525     A.U. after   10 cycles
 SCF Done:  E(RB3LYP) =  -495.843119434     A.U. after   11 cycles
 SCF Done:  E(RB3LYP) =  -495.843121092     A.U. after   10 cycles
 SCF Done:  E(RB3LYP) =  -495.843121618     A.U. after    9 cycles
 SCF Done:  E(RB3LYP) =  -495.843121872     A.U. after    9 cycles
 SCF Done:  E(RB3LYP) =  -495.843121923     A.U. after    7 cycles
 Optimization completed.
    -- Stationary point found.

                         Standard orientation:
 ---------------------------------------------------------------------
 Center     Atomic      Atomic             Coordinates (Angstroms)
 Number     Number       Type             X           Y           Z
 ---------------------------------------------------------------------
      1          1           0       -4.127472   -1.116335    0.058933
      2          6           0       -3.109923   -1.296974    0.415465
      3          1           0       -2.729973   -2.221690   -0.029492
      4          1           0       -3.161807   -1.426206    1.502170
      5          6           0       -2.263426   -0.064044    0.109014
      6          8           0       -2.675979    1.061177    0.367384
      7          7           0       -1.060444   -0.350658   -0.476188
      8          1           0       -0.796661   -1.327186   -0.552436
      9          6           0        0.094366    0.518244   -0.709187
     10          1           0        0.208942    0.653635   -1.797277
     11          6           0        0.002333    1.910721   -0.074384
     12          1           0        0.004037    1.862089    1.018716
     13          1           0        0.846928    2.524467   -0.411784
     14          1           0       -0.919753    2.405467   -0.373185
     15          6           0        1.327348   -0.321680   -0.277247
     16          8           0        1.308939   -1.543885   -0.414564
     17          7           0        2.400357    0.353949    0.205570
     18          1           0        2.324384    1.349271    0.347942
     19          6           0        3.630522   -0.311474    0.603661
     20          1           0        3.532470   -1.366429    0.346390
     21          1           0        4.490682    0.113465    0.074489
     22          1           0        3.797844   -0.220676    1.683380
 ---------------------------------------------------------------------

 The electronic state is 1-A.
 Alpha  occ. eigenvalues --  -19.12307 -19.09711 -14.37592 -14.35022 -10.29643
 Alpha  occ. eigenvalues --  -10.28034 -10.24442 -10.22735 -10.18752 -10.18262
 Alpha  occ. eigenvalues --   -1.04431  -1.01643  -0.93311  -0.91433  -0.78270
 Alpha  occ. eigenvalues --   -0.72527  -0.71018  -0.65781  -0.59983  -0.55443
 Alpha  occ. eigenvalues --   -0.53805  -0.50173  -0.47193  -0.45973  -0.45169
 Alpha  occ. eigenvalues --   -0.44061  -0.42713  -0.41361  -0.40187  -0.39812
 Alpha  occ. eigenvalues --   -0.38965  -0.38525  -0.37148  -0.36606  -0.34454
 Alpha  occ. eigenvalues --   -0.26769  -0.26542  -0.24193  -0.23491
 Alpha virt. eigenvalues --    0.01646   0.04021   0.06814   0.10274   0.11072
 Alpha virt. eigenvalues --    0.13141   0.14023   0.14724   0.15011   0.15667
 Alpha virt. eigenvalues --    0.16059   0.17890   0.18331   0.18860   0.20127

 Mulliken atomic charges:
              1
     1  H    0.181989
     2  C   -0.534717
     3  H    0.150136
     4  H    0.179835
     5  C    0.592314
     6  O   -0.518603
     7  N   -0.611675
     8  H    0.347574
     9  C   -0.011777
    10  H    0.171239
    11  C   -0.477552
    12  H    0.164054
    13  H    0.127598
    14  H    0.211069
    15  C    0.602252
    16  O   -0.533302
    17  N   -0.596086
    18  H    0.336895
    19  C   -0.314476
    20  H    0.207914
    21  H    0.161370
    22  H    0.163949
 Sum of Mulliken atomic charges =   0.00000

 Dipole moment (field-independent basis, Debye):
    X=              3.4142    Y=              0.5375    Z=              0.1952  Tot=              3.4617
 Quadrupole moment (field-independent basis, Debye-Ang):
   XX=            -57.2790   YY=            -62.2749   ZZ=            -59.1942
   XY=             12.1820   XZ=              3.5090   YZ=             -2.1597

 Normal termination of Gaussian 09 at Fri Feb 10 19:36:26 2017.
