 Gaussian 09, Revision A.02,
 Gaussian 09:  EM64L-G09RevA.02 11-Jun-2009

 ----------------------------------------------------------------------
 # b3lyp/6-31G* Opt=(ModRedundant, maxcycles=1000, calcfc) geom=nocrowd
 ----------------------------------------------------------------------

 ------------------
 Phi Psi fixed scan
 ------------------
 Symbolic Z-matrix:
 Charge =  0 Multiplicity = 1

 SCF Done:  E(RB3LYP) =  -495.819387346     A.U. after   14 cycles

  Exact polarizability:   0.000   0.000   0.000   0.000   0.000   0.000
 Approx polarizability: 119.958  -3.041 123.878  -9.841   3.508  91.871

 SCF Done:  E(RB3LYP) =  -495.828179537     A.U. after   13 cycles
 SCF Done:  E(RB3LYP) =  -495.836922961     A.U. after   13 cycles
 SCF Done:  E(RB3LYP) =  -495.828660644     A.U. after   14 cycles
 SCF Done:  E(RB3LYP) =  -495.839285789     A.U. after   13 cycles
 SCF Done:  E(RB3LYP) =  -495.840115998     A.U. after   12 cycles
 SCF Done:  E(RB3LYP) =  -495.841335340     A.U. after   15 cycles
 SCF Done:  E(RB3LYP) =  -495.841898882     A.U. after   13 cycles
 SCF Done:  E(RB3LYP) =  -495.842772330     A.U. after   12 cycles
 SCF Done:  E(RB3LYP) =  -495.842541959     A.U. after   12 cycles
 SCF Done:  E(RB3LYP) =  -495.843422563     A.U. after   11 cycles
 SCF Done:  E(RB3LYP) =  -495.843429108     A.U. after   10 cycles
 SCF Done:  E(RB3LYP) =  -495.843431604     A.U. after   10 cycles
 SCF Done:  E(RB3LYP) =  -495.843433874     A.U. after   10 cycles
 SCF Done:  E(RB3LYP) =  -495.843434364     A.U. after    8 cycles
 SCF Done:  E(RB3LYP) =  -495.843434742     A.U. after    8 cycles
 SCF Done:  E(RB3LYP) =  -495.843435098     A.U. after    8 cycles
 SCF Done:  E(RB3LYP) =  -495.843435165     A.U. after    7 cycles
 SCF Done:  E(RB3LYP) =  -495.843435185     A.U. after    7 cycles
 SCF Done:  E(RB3LYP) =  -495.843435204     A.U. after    7 cycles
 Optimization completed.
    -- Stationary point found.

                         Standard orientation:
 ---------------------------------------------------------------------
 Center     Atomic      Atomic             Coordinates (Angstroms)
 Number     Number       Type             X           Y           Z
 ---------------------------------------------------------------------
      1          1           0       -4.179755   -1.070472    0.158409
      2          6           0       -3.118341   -1.323081    0.170691
      3          1           0       -2.917724   -2.103643   -0.570870
      4          1           0       -2.867979   -1.725530    1.159994
      5          6           0       -2.310546   -0.054846   -0.086261
      6          8           0       -2.782537    1.058679    0.100257
      7          7           0       -1.045861   -0.298558   -0.576405
      8          1           0       -0.744191   -1.264218   -0.471943
      9          6           0        0.108846    0.594727   -0.500461
     10          1           0        0.323239    0.999427   -1.501077
     11          6           0       -0.037782    1.775983    0.479997
     12          1           0       -0.184181    1.411517    1.501791
     13          1           0        0.870562    2.388361    0.461670
     14          1           0       -0.895861    2.391290    0.215526
     15          6           0        1.311122   -0.279894   -0.066513
     16          8           0        1.159802   -1.414401    0.378701
     17          7           0        2.530265    0.294606   -0.246682
     18          1           0        2.569610    1.235618   -0.611889
     19          6           0        3.773574   -0.348748    0.144401
     20          1           0        3.531926   -1.364858    0.457663
     21          1           0        4.471737   -0.387077   -0.698952
     22          1           0        4.252423    0.178182    0.978503
 ---------------------------------------------------------------------

 The electronic state is 1-A.
 Alpha  occ. eigenvalues --  -19.12775 -19.10207 -14.37646 -14.34626 -10.29804
 Alpha  occ. eigenvalues --  -10.27993 -10.24216 -10.22868 -10.18349 -10.18195
 Alpha  occ. eigenvalues --   -1.04750  -1.01939  -0.93448  -0.91342  -0.78106
 Alpha  occ. eigenvalues --   -0.72582  -0.71051  -0.65048  -0.59917  -0.55203
 Alpha  occ. eigenvalues --   -0.53813  -0.49276  -0.47613  -0.46179  -0.45014
 Alpha  occ. eigenvalues --   -0.44158  -0.42960  -0.40952  -0.40411  -0.40187
 Alpha  occ. eigenvalues --   -0.38720  -0.38357  -0.36757  -0.36618  -0.34467
 Alpha  occ. eigenvalues --   -0.26764  -0.26662  -0.24989  -0.23526
 Alpha virt. eigenvalues --    0.01622   0.03311   0.06049   0.10306   0.11233
 Alpha virt. eigenvalues --    0.13669   0.14307   0.14480   0.15041   0.15870
 Alpha virt. eigenvalues --    0.16317   0.17365   0.18592   0.18768   0.19730

 Mulliken atomic charges:
              1
     1  H    0.182048
     2  C   -0.544838
     3  H    0.160501
     4  H    0.178539
     5  C    0.582697
     6  O   -0.504947
     7  N   -0.608090
     8  H    0.344396
     9  C   -0.013660
    10  H    0.153100
    11  C   -0.452549
    12  H    0.162700
    13  H    0.123878
    14  H    0.209731
    15  C    0.587143
    16  O   -0.524789
    17  N   -0.586326
    18  H    0.330780
    19  C   -0.312488
    20  H    0.207280
    21  H    0.161591
    22  H    0.163305
 Sum of Mulliken atomic charges =   0.00000

 Dipole moment (field-independent basis, Debye):
    X=              4.0273    Y=              0.2654    Z=             -0.8970  Tot=              4.1345
 Quadrupole moment (field-independent basis, Debye-Ang):
   XX=            -56.0990   YY=            -61.5178   ZZ=            -60.0091
   XY=             11.7019   XZ=             -1.5889   YZ=             -0.1802

 Normal termination of Gaussian 09 at Fri Feb 10 19:33:11 2017.
