 Gaussian 09, Revision A.02,
 Gaussian 09:  EM64L-G09RevA.02 11-Jun-2009

 ----------------------------------------------------------------------
 # b3lyp/6-31G* Opt=(ModRedundant, maxcycles=1000, calcfc) geom=nocrowd
 ----------------------------------------------------------------------

 ------------------
 Phi Psi fixed scan
 ------------------
 Symbolic Z-matrix:
 Charge =  0 Multiplicity = 1

 SCF Done:  E(RB3LYP) =  -495.812568910     A.U. after   15 cycles

  Exact polarizability:   0.000   0.000   0.000   0.000   0.000   0.000
 Approx polarizability: 111.339 -10.308 118.067  -5.999  15.678 107.974

 SCF Done:  E(RB3LYP) =  -495.823041954     A.U. after   13 cycles
 SCF Done:  E(RB3LYP) =  -495.833501747     A.U. after   13 cycles
 SCF Done:  E(RB3LYP) =  -495.833723633     A.U. after   16 cycles
 SCF Done:  E(RB3LYP) =  -495.836136787     A.U. after   14 cycles
 SCF Done:  E(RB3LYP) =  -495.837949806     A.U. after   13 cycles
 SCF Done:  E(RB3LYP) =  -495.838407380     A.U. after   12 cycles
 SCF Done:  E(RB3LYP) =  -495.826277817     A.U. after   15 cycles
 SCF Done:  E(RB3LYP) =  -495.838804315     A.U. after   13 cycles
 SCF Done:  E(RB3LYP) =  -495.838916558     A.U. after   11 cycles
 SCF Done:  E(RB3LYP) =  -495.839167869     A.U. after   11 cycles
 SCF Done:  E(RB3LYP) =  -495.839180789     A.U. after   10 cycles
 SCF Done:  E(RB3LYP) =  -495.839190003     A.U. after   10 cycles
 SCF Done:  E(RB3LYP) =  -495.839195004     A.U. after   10 cycles
 SCF Done:  E(RB3LYP) =  -495.839203970     A.U. after   10 cycles
 SCF Done:  E(RB3LYP) =  -495.839215973     A.U. after   11 cycles
 SCF Done:  E(RB3LYP) =  -495.839220798     A.U. after   10 cycles
 SCF Done:  E(RB3LYP) =  -495.839223295     A.U. after   11 cycles
 SCF Done:  E(RB3LYP) =  -495.839223389     A.U. after    7 cycles
 SCF Done:  E(RB3LYP) =  -495.839223491     A.U. after    7 cycles
 Optimization completed.
    -- Stationary point found.

                         Standard orientation:
 ---------------------------------------------------------------------
 Center     Atomic      Atomic             Coordinates (Angstroms)
 Number     Number       Type             X           Y           Z
 ---------------------------------------------------------------------
      1          1           0        3.932662   -1.225499    0.345948
      2          6           0        3.008879   -1.444837   -0.199610
      3          1           0        2.540849   -2.330265    0.241875
      4          1           0        3.286419   -1.665486   -1.234120
      5          6           0        2.129829   -0.196689   -0.190983
      6          8           0        2.476931    0.822472   -0.773922
      7          7           0        0.961533   -0.339927    0.510868
      8          1           0        0.816740   -1.224953    0.978846
      9          6           0       -0.086895    0.648005    0.813490
     10          1           0       -0.094055    0.805084    1.899156
     11          6           0        0.075650    2.009704    0.132818
     12          1           0        0.150455    1.940783   -0.954960
     13          1           0       -0.787712    2.630979    0.396293
     14          1           0        0.985563    2.506151    0.471172
     15          6           0       -1.431841   -0.064643    0.534322
     16          8           0       -1.960038   -0.741630    1.411319
     17          7           0       -1.922033    0.047360   -0.729806
     18          1           0       -1.401164    0.591140   -1.402074
     19          6           0       -3.120725   -0.643715   -1.171655
     20          1           0       -3.562476   -1.123296   -0.297324
     21          1           0       -3.841575    0.060627   -1.601737
     22          1           0       -2.886728   -1.410978   -1.919972
 ---------------------------------------------------------------------

 The electronic state is 1-A.
 Alpha  occ. eigenvalues --  -19.11469 -19.10569 -14.36754 -14.36512 -10.28970
 Alpha  occ. eigenvalues --  -10.28754 -10.24121 -10.22205 -10.19188 -10.18686
 Alpha  occ. eigenvalues --   -1.03540  -1.02544  -0.92783  -0.92035  -0.78403
 Alpha  occ. eigenvalues --   -0.72882  -0.70942  -0.65785  -0.59068  -0.56637
 Alpha  occ. eigenvalues --   -0.53461  -0.50979  -0.46810  -0.45622  -0.45068
 Alpha  occ. eigenvalues --   -0.44251  -0.42539  -0.41325  -0.40195  -0.39922
 Alpha  occ. eigenvalues --   -0.39025  -0.38228  -0.37714  -0.36476  -0.35380
 Alpha  occ. eigenvalues --   -0.26811  -0.25600  -0.24570  -0.23877
 Alpha virt. eigenvalues --    0.01583   0.03633   0.06970   0.08032   0.11360
 Alpha virt. eigenvalues --    0.12519   0.13657   0.15129   0.15852   0.16076
 Alpha virt. eigenvalues --    0.16604   0.17860   0.18070   0.18844   0.18988

 Mulliken atomic charges:
              1
     1  H    0.185525
     2  C   -0.535406
     3  H    0.145305
     4  H    0.184823
     5  C    0.590001
     6  O   -0.512526
     7  N   -0.608768
     8  H    0.334921
     9  C   -0.011684
    10  H    0.168640
    11  C   -0.456850
    12  H    0.161770
    13  H    0.149274
    14  H    0.185184
    15  C    0.576090
    16  O   -0.520905
    17  N   -0.581348
    18  H    0.334440
    19  C   -0.312248
    20  H    0.204629
    21  H    0.159572
    22  H    0.159561
 Sum of Mulliken atomic charges =   0.00000

 Dipole moment (field-independent basis, Debye):
    X=             -0.7670    Y=             -0.8470    Z=             -1.2640  Tot=              1.7040
 Quadrupole moment (field-independent basis, Debye-Ang):
   XX=            -63.1099   YY=            -58.4717   ZZ=            -60.8825
   XY=             -8.4589   XZ=             11.2709   YZ=              3.1824

 Normal termination of Gaussian 09 at Fri Feb 10 19:38:44 2017.
