 Gaussian 09, Revision A.02,
 Gaussian 09:  EM64L-G09RevA.02 11-Jun-2009

 ----------------------------------------------------------------------
 # b3lyp/6-31G* Opt=(ModRedundant, maxcycles=1000, calcfc) geom=nocrowd
 ----------------------------------------------------------------------

 ------------------
 Phi Psi fixed scan
 ------------------
 Symbolic Z-matrix:
 Charge =  0 Multiplicity = 1

 SCF Done:  E(RB3LYP) =  -495.808612664     A.U. after   15 cycles

  Exact polarizability:   0.000   0.000   0.000   0.000   0.000   0.000
 Approx polarizability: 115.309   7.060 132.033  -1.858 -12.913  89.465

 SCF Done:  E(RB3LYP) =  -495.817900393     A.U. after   14 cycles
 SCF Done:  E(RB3LYP) =  -495.827444673     A.U. after   16 cycles
 SCF Done:  E(RB3LYP) =  -495.819902374     A.U. after   16 cycles
 SCF Done:  E(RB3LYP) =  -495.830121354     A.U. after   13 cycles
 SCF Done:  E(RB3LYP) =  -495.831170305     A.U. after   16 cycles
 SCF Done:  E(RB3LYP) =  -495.832762163     A.U. after   13 cycles
 SCF Done:  E(RB3LYP) =  -495.833375426     A.U. after   13 cycles
 SCF Done:  E(RB3LYP) =  -495.833896730     A.U. after   12 cycles
 SCF Done:  E(RB3LYP) =  -495.832265231     A.U. after   13 cycles
 SCF Done:  E(RB3LYP) =  -495.834718749     A.U. after   12 cycles
 SCF Done:  E(RB3LYP) =  -495.834726216     A.U. after   10 cycles
 SCF Done:  E(RB3LYP) =  -495.834731298     A.U. after   10 cycles
 SCF Done:  E(RB3LYP) =  -495.834733241     A.U. after    9 cycles
 SCF Done:  E(RB3LYP) =  -495.834735075     A.U. after   10 cycles
 SCF Done:  E(RB3LYP) =  -495.834735534     A.U. after    9 cycles
 SCF Done:  E(RB3LYP) =  -495.834735859     A.U. after    9 cycles
 SCF Done:  E(RB3LYP) =  -495.834736112     A.U. after    8 cycles
 SCF Done:  E(RB3LYP) =  -495.834736097     A.U. after    7 cycles
 SCF Done:  E(RB3LYP) =  -495.834736099     A.U. after    6 cycles
 Optimization completed.
    -- Stationary point found.

                         Standard orientation:
 ---------------------------------------------------------------------
 Center     Atomic      Atomic             Coordinates (Angstroms)
 Number     Number       Type             X           Y           Z
 ---------------------------------------------------------------------
      1          1           0       -3.711006   -1.816769    0.289338
      2          6           0       -2.638789   -1.739628    0.478475
      3          1           0       -2.125086   -2.584907    0.007724
      4          1           0       -2.480363   -1.802555    1.561996
      5          6           0       -2.152926   -0.382972   -0.026957
      6          8           0       -2.891821    0.588202   -0.061589
      7          7           0       -0.839783   -0.390705   -0.456779
      8          1           0       -0.344400   -1.236966   -0.204932
      9          6           0        0.058776    0.781997   -0.585856
     10          1           0        0.217561    0.966975   -1.661011
     11          6           0       -0.446328    2.077142    0.050310
     12          1           0       -0.616124    1.947134    1.122143
     13          1           0        0.323170    2.842833   -0.075649
     14          1           0       -1.377613    2.398512   -0.412032
     15          6           0        1.437981    0.410008    0.015141
     16          8           0        2.039609    1.129475    0.794899
     17          7           0        1.916574   -0.829048   -0.357309
     18          1           0        1.569839   -1.214330   -1.227765
     19          6           0        3.250721   -1.250279    0.055107
     20          1           0        3.379138   -1.014467    1.112387
     21          1           0        3.346778   -2.329291   -0.090578
     22          1           0        4.041654   -0.736926   -0.506800
 ---------------------------------------------------------------------

 The electronic state is 1-A.
 Alpha  occ. eigenvalues --  -19.12840 -19.10872 -14.37626 -14.36109 -10.29741
 Alpha  occ. eigenvalues --  -10.28837 -10.24252 -10.22946 -10.19223 -10.16714
 Alpha  occ. eigenvalues --   -1.04766  -1.02747  -0.93812  -0.91627  -0.77885
 Alpha  occ. eigenvalues --   -0.72539  -0.71815  -0.64326  -0.59307  -0.56382
 Alpha  occ. eigenvalues --   -0.54006  -0.49207  -0.48155  -0.46854  -0.45377
 Alpha  occ. eigenvalues --   -0.44161  -0.42881  -0.41075  -0.40517  -0.39816
 Alpha  occ. eigenvalues --   -0.38631  -0.37755  -0.36727  -0.36098  -0.34859
 Alpha  occ. eigenvalues --   -0.27903  -0.27016  -0.24618  -0.24229
 Alpha virt. eigenvalues --    0.00518   0.02966   0.06020   0.09081   0.11355
 Alpha virt. eigenvalues --    0.12056   0.13307   0.14324   0.15241   0.15502
 Alpha virt. eigenvalues --    0.16809   0.17269   0.18067   0.18920   0.20241

 Mulliken atomic charges:
              1
     1  H    0.188154
     2  C   -0.545742
     3  H    0.149393
     4  H    0.180583
     5  C    0.593552
     6  O   -0.492963
     7  N   -0.624773
     8  H    0.325409
     9  C   -0.026238
    10  H    0.158990
    11  C   -0.433349
    12  H    0.159372
    13  H    0.156450
    14  H    0.183799
    15  C    0.577534
    16  O   -0.491448
    17  N   -0.602472
    18  H    0.329012
    19  C   -0.302295
    20  H    0.196537
    21  H    0.154475
    22  H    0.166020
 Sum of Mulliken atomic charges =   0.00000

 Dipole moment (field-independent basis, Debye):
    X=              2.4293    Y=             -4.3332    Z=             -1.7136  Tot=              5.2550
 Quadrupole moment (field-independent basis, Debye-Ang):
   XX=            -67.1677   YY=            -57.7231   ZZ=            -58.9511
   XY=             -0.9120   XZ=             -5.5970   YZ=             -1.6834

 Normal termination of Gaussian 09 at Fri Feb 10 19:47:17 2017.
