 Gaussian 09, Revision A.02,
 Gaussian 09:  EM64L-G09RevA.02 11-Jun-2009

 ----------------------------------------------------------------------
 # b3lyp/6-31G* Opt=(ModRedundant, maxcycles=1000, calcfc) geom=nocrowd
 ----------------------------------------------------------------------

 ------------------
 Phi Psi fixed scan
 ------------------
 Symbolic Z-matrix:
 Charge =  0 Multiplicity = 1

 SCF Done:  E(RB3LYP) =  -495.816349817     A.U. after   15 cycles

  Exact polarizability:   0.000   0.000   0.000   0.000   0.000   0.000
 Approx polarizability: 117.906   2.151 126.579 -10.056   0.754  93.130

 SCF Done:  E(RB3LYP) =  -495.825660222     A.U. after   13 cycles
 SCF Done:  E(RB3LYP) =  -495.835331628     A.U. after   13 cycles
 SCF Done:  E(RB3LYP) =  -495.825855604     A.U. after   14 cycles
 SCF Done:  E(RB3LYP) =  -495.838254869     A.U. after   13 cycles
 SCF Done:  E(RB3LYP) =  -495.839127120     A.U. after   11 cycles
 SCF Done:  E(RB3LYP) =  -495.840332575     A.U. after   12 cycles
 SCF Done:  E(RB3LYP) =  -495.840788705     A.U. after   12 cycles
 SCF Done:  E(RB3LYP) =  -495.840776982     A.U. after   12 cycles
 SCF Done:  E(RB3LYP) =  -495.840791631     A.U. after   11 cycles
 SCF Done:  E(RB3LYP) =  -495.841355300     A.U. after   12 cycles
 SCF Done:  E(RB3LYP) =  -495.841415173     A.U. after   11 cycles
 SCF Done:  E(RB3LYP) =  -495.841435215     A.U. after   12 cycles
 SCF Done:  E(RB3LYP) =  -495.841487688     A.U. after   11 cycles
 SCF Done:  E(RB3LYP) =  -495.841513531     A.U. after   11 cycles
 SCF Done:  E(RB3LYP) =  -495.841518991     A.U. after   10 cycles
 SCF Done:  E(RB3LYP) =  -495.841521900     A.U. after   10 cycles
 SCF Done:  E(RB3LYP) =  -495.841522425     A.U. after    9 cycles
 SCF Done:  E(RB3LYP) =  -495.841523034     A.U. after    8 cycles
 SCF Done:  E(RB3LYP) =  -495.841523270     A.U. after    8 cycles
 Optimization completed.
    -- Stationary point found.

                         Standard orientation:
 ---------------------------------------------------------------------
 Center     Atomic      Atomic             Coordinates (Angstroms)
 Number     Number       Type             X           Y           Z
 ---------------------------------------------------------------------
      1          1           0       -3.595376   -1.749186    0.459419
      2          6           0       -3.032980   -1.369642   -0.396451
      3          1           0       -3.756193   -0.971611   -1.117775
      4          1           0       -2.492605   -2.196149   -0.870097
      5          6           0       -2.132266   -0.232922    0.082610
      6          8           0       -2.505256    0.553871    0.937086
      7          7           0       -0.895695   -0.205165   -0.533051
      8          1           0       -0.792786   -0.858904   -1.299086
      9          6           0        0.122147    0.858679   -0.540383
     10          1           0        0.164386    1.278653   -1.554203
     11          6           0       -0.126398    2.019818    0.432920
     12          1           0       -0.167843    1.677274    1.468887
     13          1           0        0.708531    2.716338    0.317864
     14          1           0       -1.063366    2.531655    0.211545
     15          6           0        1.543276    0.301723   -0.293412
     16          8           0        2.521314    0.992876   -0.552255
     17          7           0        1.613560   -0.967140    0.196475
     18          1           0        0.744427   -1.393204    0.488086
     19          6           0        2.873793   -1.579992    0.576778
     20          1           0        3.674471   -1.000949    0.114322
     21          1           0        3.017982   -1.572839    1.664755
     22          1           0        2.919425   -2.614908    0.221296
 ---------------------------------------------------------------------

 The electronic state is 1-A.
 Alpha  occ. eigenvalues --  -19.11594 -19.10916 -14.37235 -14.36377 -10.29806
 Alpha  occ. eigenvalues --  -10.28401 -10.24178 -10.22025 -10.19981 -10.17596
 Alpha  occ. eigenvalues --   -1.03710  -1.02928  -0.93625  -0.91563  -0.78285
 Alpha  occ. eigenvalues --   -0.73164  -0.71194  -0.64843  -0.58721  -0.56717
 Alpha  occ. eigenvalues --   -0.53802  -0.51158  -0.47387  -0.45704  -0.45304
 Alpha  occ. eigenvalues --   -0.44429  -0.42399  -0.41283  -0.40682  -0.39741
 Alpha  occ. eigenvalues --   -0.39088  -0.37625  -0.37022  -0.36297  -0.34906
 Alpha  occ. eigenvalues --   -0.27617  -0.25623  -0.25277  -0.23863
 Alpha virt. eigenvalues --    0.01908   0.02738   0.05693   0.09813   0.11815
 Alpha virt. eigenvalues --    0.12654   0.13552   0.14216   0.15790   0.16118
 Alpha virt. eigenvalues --    0.16890   0.17604   0.17758   0.18708   0.18929

 Mulliken atomic charges:
              1
     1  H    0.190232
     2  C   -0.541983
     3  H    0.186641
     4  H    0.144477
     5  C    0.587389
     6  O   -0.489689
     7  N   -0.637312
     8  H    0.324997
     9  C   -0.022645
    10  H    0.169930
    11  C   -0.438010
    12  H    0.165639
    13  H    0.170211
    14  H    0.172938
    15  C    0.585592
    16  O   -0.523422
    17  N   -0.587624
    18  H    0.333221
    19  C   -0.309087
    20  H    0.202935
    21  H    0.161620
    22  H    0.153950
 Sum of Mulliken atomic charges =   0.00000

 Dipole moment (field-independent basis, Debye):
    X=             -0.8947    Y=             -4.0275    Z=             -1.3797  Tot=              4.3503
 Quadrupole moment (field-independent basis, Debye-Ang):
   XX=            -68.5195   YY=            -57.0683   ZZ=            -59.4380
   XY=             -1.9500   XZ=              9.1368   YZ=             -0.5975

 Normal termination of Gaussian 09 at Fri Feb 10 19:51:26 2017.
