 Gaussian 09, Revision A.02,
 Gaussian 09:  EM64L-G09RevA.02 11-Jun-2009

 ----------------------------------------------------------------------
 # b3lyp/6-31G* Opt=(ModRedundant, maxcycles=1000, calcfc) geom=nocrowd
 ----------------------------------------------------------------------

 ------------------
 Phi Psi fixed scan
 ------------------
 Symbolic Z-matrix:
 Charge =  0 Multiplicity = 1

 SCF Done:  E(RB3LYP) =  -495.817792143     A.U. after   16 cycles

  Exact polarizability:   0.000   0.000   0.000   0.000   0.000   0.000
 Approx polarizability: 115.858   2.113 113.852  15.702   2.882 106.979

 SCF Done:  E(RB3LYP) =  -495.826812323     A.U. after   16 cycles
 SCF Done:  E(RB3LYP) =  -495.836128866     A.U. after   15 cycles
 SCF Done:  E(RB3LYP) =  -495.827722294     A.U. after   14 cycles
 SCF Done:  E(RB3LYP) =  -495.838830678     A.U. after   14 cycles
 SCF Done:  E(RB3LYP) =  -495.839452421     A.U. after   12 cycles
 SCF Done:  E(RB3LYP) =  -495.840252326     A.U. after   13 cycles
 SCF Done:  E(RB3LYP) =  -495.840652918     A.U. after   13 cycles
 SCF Done:  E(RB3LYP) =  -495.840537867     A.U. after   12 cycles
 SCF Done:  E(RB3LYP) =  -495.840661520     A.U. after   13 cycles
 SCF Done:  E(RB3LYP) =  -495.841009654     A.U. after   10 cycles
 SCF Done:  E(RB3LYP) =  -495.841042059     A.U. after   11 cycles
 SCF Done:  E(RB3LYP) =  -495.841065308     A.U. after   12 cycles
 SCF Done:  E(RB3LYP) =  -495.841071762     A.U. after   10 cycles
 SCF Done:  E(RB3LYP) =  -495.841099947     A.U. after   12 cycles
 SCF Done:  E(RB3LYP) =  -495.841114726     A.U. after   12 cycles
 SCF Done:  E(RB3LYP) =  -495.841117219     A.U. after   10 cycles
 SCF Done:  E(RB3LYP) =  -495.841117741     A.U. after    9 cycles
 SCF Done:  E(RB3LYP) =  -495.841117982     A.U. after    9 cycles
 SCF Done:  E(RB3LYP) =  -495.841118023     A.U. after    6 cycles
 Optimization completed.
    -- Stationary point found.

                         Standard orientation:
 ---------------------------------------------------------------------
 Center     Atomic      Atomic             Coordinates (Angstroms)
 Number     Number       Type             X           Y           Z
 ---------------------------------------------------------------------
      1          1           0       -3.550320   -1.801859    0.320179
      2          6           0       -3.039478   -1.313361   -0.512679
      3          1           0       -3.805573   -0.845150   -1.141386
      4          1           0       -2.516573   -2.068098   -1.109380
      5          6           0       -2.127864   -0.225241    0.050235
      6          8           0       -2.474657    0.464979    0.996757
      7          7           0       -0.921434   -0.114047   -0.605028
      8          1           0       -0.810051   -0.712931   -1.412739
      9          6           0        0.121644    0.916679   -0.489538
     10          1           0        0.143687    1.488480   -1.425229
     11          6           0       -0.047955    1.907777    0.670543
     12          1           0       -0.054863    1.405831    1.640068
     13          1           0        0.799551    2.600234    0.633778
     14          1           0       -0.976687    2.471409    0.579107
     15          6           0        1.520238    0.265596   -0.406466
     16          8           0        2.470711    0.740141   -1.016789
     17          7           0        1.609071   -0.798847    0.439319
     18          1           0        0.754340   -1.132765    0.862593
     19          6           0        2.854824   -1.494995    0.702210
     20          1           0        3.636873   -0.987152    0.135775
     21          1           0        3.106143   -1.464386    1.768887
     22          1           0        2.803126   -2.543042    0.382734
 ---------------------------------------------------------------------

 The electronic state is 1-A.
 Alpha  occ. eigenvalues --  -19.11352 -19.11132 -14.37110 -14.36400 -10.29626
 Alpha  occ. eigenvalues --  -10.28434 -10.24058 -10.22055 -10.19822 -10.18085
 Alpha  occ. eigenvalues --   -1.03547  -1.02955  -0.93431  -0.91643  -0.78416
 Alpha  occ. eigenvalues --   -0.73187  -0.71054  -0.65185  -0.58664  -0.56994
 Alpha  occ. eigenvalues --   -0.53709  -0.50997  -0.47258  -0.45610  -0.45223
 Alpha  occ. eigenvalues --   -0.44106  -0.42647  -0.41328  -0.40678  -0.39940
 Alpha  occ. eigenvalues --   -0.38932  -0.37920  -0.37451  -0.36282  -0.35372
 Alpha  occ. eigenvalues --   -0.27199  -0.25362  -0.25303  -0.23907
 Alpha virt. eigenvalues --    0.01989   0.02600   0.06169   0.09192   0.11878
 Alpha virt. eigenvalues --    0.12239   0.13697   0.14549   0.15897   0.16232
 Alpha virt. eigenvalues --    0.16437   0.17387   0.17902   0.18320   0.19065

 Mulliken atomic charges:
              1
     1  H    0.188247
     2  C   -0.540337
     3  H    0.186945
     4  H    0.145208
     5  C    0.584651
     6  O   -0.497663
     7  N   -0.624146
     8  H    0.326555
     9  C   -0.025954
    10  H    0.168832
    11  C   -0.437701
    12  H    0.162910
    13  H    0.160636
    14  H    0.180762
    15  C    0.571735
    16  O   -0.518155
    17  N   -0.575917
    18  H    0.333999
    19  C   -0.310217
    20  H    0.204058
    21  H    0.160557
    22  H    0.154995
 Sum of Mulliken atomic charges =   0.00000

 Dipole moment (field-independent basis, Debye):
    X=             -0.7461    Y=             -3.3153    Z=             -0.6265  Tot=              3.4555
 Quadrupole moment (field-independent basis, Debye-Ang):
   XX=            -68.0229   YY=            -56.4095   ZZ=            -60.7249
   XY=             -1.1810   XZ=             11.7616   YZ=             -0.0530

 Normal termination of Gaussian 09 at Fri Feb 10 19:51:09 2017.
