 Gaussian 09, Revision A.02,
 Gaussian 09:  EM64L-G09RevA.02 11-Jun-2009

 ----------------------------------------------------------------------
 # b3lyp/6-31G* Opt=(ModRedundant, maxcycles=1000, calcfc) geom=nocrowd
 ----------------------------------------------------------------------

 ------------------
 Phi Psi fixed scan
 ------------------
 Symbolic Z-matrix:
 Charge =  0 Multiplicity = 1

 SCF Done:  E(RB3LYP) =  -495.810428151     A.U. after   15 cycles

  Exact polarizability:   0.000   0.000   0.000   0.000   0.000   0.000
 Approx polarizability: 115.536   9.962 127.985  -2.341 -14.228  93.415

 SCF Done:  E(RB3LYP) =  -495.819991672     A.U. after   16 cycles
 SCF Done:  E(RB3LYP) =  -495.829776245     A.U. after   13 cycles
 SCF Done:  E(RB3LYP) =  -495.824235487     A.U. after   14 cycles
 SCF Done:  E(RB3LYP) =  -495.832696398     A.U. after   14 cycles
 SCF Done:  E(RB3LYP) =  -495.833559071     A.U. after   12 cycles
 SCF Done:  E(RB3LYP) =  -495.834780796     A.U. after   12 cycles
 SCF Done:  E(RB3LYP) =  -495.835217435     A.U. after   12 cycles
 SCF Done:  E(RB3LYP) =  -495.835517236     A.U. after   12 cycles
 SCF Done:  E(RB3LYP) =  -495.832558166     A.U. after   13 cycles
 SCF Done:  E(RB3LYP) =  -495.835927766     A.U. after   11 cycles
 SCF Done:  E(RB3LYP) =  -495.835950180     A.U. after   11 cycles
 SCF Done:  E(RB3LYP) =  -495.835959898     A.U. after   10 cycles
 SCF Done:  E(RB3LYP) =  -495.835968786     A.U. after   11 cycles
 SCF Done:  E(RB3LYP) =  -495.835970600     A.U. after    9 cycles
 SCF Done:  E(RB3LYP) =  -495.835972106     A.U. after    9 cycles
 SCF Done:  E(RB3LYP) =  -495.835974158     A.U. after   10 cycles
 SCF Done:  E(RB3LYP) =  -495.835974949     A.U. after    9 cycles
 SCF Done:  E(RB3LYP) =  -495.835975207     A.U. after    8 cycles
 SCF Done:  E(RB3LYP) =  -495.835975247     A.U. after    6 cycles
 Optimization completed.
    -- Stationary point found.

                         Standard orientation:
 ---------------------------------------------------------------------
 Center     Atomic      Atomic             Coordinates (Angstroms)
 Number     Number       Type             X           Y           Z
 ---------------------------------------------------------------------
      1          1           0       -3.705963   -1.859252    0.137497
      2          6           0       -2.666338   -1.751221    0.453750
      3          1           0       -2.083510   -2.598303    0.076372
      4          1           0       -2.645361   -1.779307    1.549553
      5          6           0       -2.154391   -0.392582   -0.020131
      6          8           0       -2.884320    0.586540   -0.050293
      7          7           0       -0.834035   -0.402966   -0.410823
      8          1           0       -0.346440   -1.272867   -0.241332
      9          6           0        0.068354    0.753717   -0.603679
     10          1           0        0.252978    0.864998   -1.685020
     11          6           0       -0.443101    2.086344   -0.060573
     12          1           0       -0.620428    2.025869    1.015124
     13          1           0        0.327928    2.843593   -0.230904
     14          1           0       -1.368678    2.378989   -0.552484
     15          6           0        1.415926    0.391706    0.070176
     16          8           0        1.873782    0.998487    1.024393
     17          7           0        2.018889   -0.729033   -0.455412
     18          1           0        1.746134   -1.009935   -1.388872
     19          6           0        3.324257   -1.170715    0.017344
     20          1           0        3.381692   -0.977214    1.089150
     21          1           0        3.437026   -2.242743   -0.166709
     22          1           0        4.146704   -0.633550   -0.472850
 ---------------------------------------------------------------------

 The electronic state is 1-A.
 Alpha  occ. eigenvalues --  -19.12633 -19.10559 -14.37575 -14.36181 -10.29561
 Alpha  occ. eigenvalues --  -10.28710 -10.24239 -10.22902 -10.19101 -10.16731
 Alpha  occ. eigenvalues --   -1.04556  -1.02509  -0.93646  -0.91695  -0.77918
 Alpha  occ. eigenvalues --   -0.72518  -0.71755  -0.64380  -0.59249  -0.56501
 Alpha  occ. eigenvalues --   -0.53847  -0.49593  -0.48095  -0.46682  -0.45458
 Alpha  occ. eigenvalues --   -0.44036  -0.42756  -0.40931  -0.40360  -0.39708
 Alpha  occ. eigenvalues --   -0.38223  -0.37716  -0.36865  -0.36075  -0.34918
 Alpha  occ. eigenvalues --   -0.27803  -0.26713  -0.24408  -0.24026
 Alpha virt. eigenvalues --    0.00573   0.03501   0.05889   0.08699   0.11501
 Alpha virt. eigenvalues --    0.12064   0.13371   0.14477   0.15484   0.15667
 Alpha virt. eigenvalues --    0.16897   0.17437   0.18253   0.18992   0.20122

 Mulliken atomic charges:
              1
     1  H    0.186879
     2  C   -0.542062
     3  H    0.144380
     4  H    0.183801
     5  C    0.596547
     6  O   -0.498299
     7  N   -0.618513
     8  H    0.324617
     9  C   -0.016325
    10  H    0.146345
    11  C   -0.431360
    12  H    0.169283
    13  H    0.147227
    14  H    0.182400
    15  C    0.571676
    16  O   -0.492154
    17  N   -0.596937
    18  H    0.327872
    19  C   -0.305741
    20  H    0.200032
    21  H    0.155516
    22  H    0.164816
 Sum of Mulliken atomic charges =   0.00000

 Dipole moment (field-independent basis, Debye):
    X=              2.7507    Y=             -4.1319    Z=             -2.2541  Tot=              5.4516
 Quadrupole moment (field-independent basis, Debye-Ang):
   XX=            -65.5642   YY=            -57.5657   ZZ=            -59.3925
   XY=              0.0914   XZ=             -6.1751   YZ=             -1.9104

 Normal termination of Gaussian 09 at Fri Feb 10 19:45:22 2017.
