 Gaussian 09, Revision A.02,
 Gaussian 09:  EM64L-G09RevA.02 11-Jun-2009

 ----------------------------------------------------------------------
 # b3lyp/6-31G* Opt=(ModRedundant, maxcycles=1000, calcfc) geom=nocrowd
 ----------------------------------------------------------------------

 ------------------
 Phi Psi fixed scan
 ------------------
 Symbolic Z-matrix:
 Charge =  0 Multiplicity = 1

 SCF Done:  E(RB3LYP) =  -495.816586414     A.U. after   15 cycles

  Exact polarizability:   0.000   0.000   0.000   0.000   0.000   0.000
 Approx polarizability: 120.932  -9.164 107.429 -13.274   0.628 109.226

 SCF Done:  E(RB3LYP) =  -495.825702812     A.U. after   13 cycles
 SCF Done:  E(RB3LYP) =  -495.836985029     A.U. after   13 cycles
 SCF Done:  E(RB3LYP) =  -495.833589620     A.U. after   15 cycles
 SCF Done:  E(RB3LYP) =  -495.837000118     A.U. after   13 cycles
 SCF Done:  E(RB3LYP) =  -495.837474120     A.U. after   11 cycles
 SCF Done:  E(RB3LYP) =  -495.838031551     A.U. after   13 cycles
 SCF Done:  E(RB3LYP) =  -495.819063815     A.U. after   13 cycles
 SCF Done:  E(RB3LYP) =  -495.838150763     A.U. after   14 cycles
 SCF Done:  E(RB3LYP) =  -495.838330566     A.U. after   11 cycles
 SCF Done:  E(RB3LYP) =  -495.838741157     A.U. after   11 cycles
 SCF Done:  E(RB3LYP) =  -495.838785039     A.U. after   12 cycles
 SCF Done:  E(RB3LYP) =  -495.838777316     A.U. after   14 cycles
 SCF Done:  E(RB3LYP) =  -495.838846862     A.U. after   12 cycles
 SCF Done:  E(RB3LYP) =  -495.838846220     A.U. after   11 cycles
 SCF Done:  E(RB3LYP) =  -495.838855616     A.U. after   11 cycles
 SCF Done:  E(RB3LYP) =  -495.838860059     A.U. after   10 cycles
 SCF Done:  E(RB3LYP) =  -495.838860551     A.U. after   10 cycles
 SCF Done:  E(RB3LYP) =  -495.838860763     A.U. after    9 cycles
 SCF Done:  E(RB3LYP) =  -495.838860732     A.U. after    7 cycles
 Optimization completed on the basis of negligible forces.
    -- Stationary point found.

                         Standard orientation:
 ---------------------------------------------------------------------
 Center     Atomic      Atomic             Coordinates (Angstroms)
 Number     Number       Type             X           Y           Z
 ---------------------------------------------------------------------
      1          1           0       -4.069209   -1.362428   -0.069060
      2          6           0       -2.998461   -1.517259    0.072419
      3          1           0       -2.655158   -2.319979   -0.589436
      4          1           0       -2.827424   -1.835146    1.108150
      5          6           0       -2.276705   -0.197557   -0.181774
      6          8           0       -2.850357    0.878518   -0.102526
      7          7           0       -0.951639   -0.350039   -0.534972
      8          1           0       -0.608564   -1.294380   -0.411103
      9          6           0        0.108890    0.664586   -0.427687
     10          1           0        0.348111    1.026774   -1.438833
     11          6           0       -0.221704    1.875301    0.459313
     12          1           0       -0.418445    1.544918    1.482492
     13          1           0        0.645747    2.545786    0.472456
     14          1           0       -1.093401    2.410861    0.088378
     15          6           0        1.340604   -0.037206    0.180327
     16          8           0        1.285199   -0.594272    1.270247
     17          7           0        2.457282   -0.020882   -0.602911
     18          1           0        2.419760    0.472417   -1.483332
     19          6           0        3.729632   -0.572483   -0.168485
     20          1           0        3.558373   -1.071414    0.786252
     21          1           0        4.106527   -1.300988   -0.894997
     22          1           0        4.481908    0.213767   -0.032225
 ---------------------------------------------------------------------

 The electronic state is 1-A.
 Alpha  occ. eigenvalues --  -19.11954 -19.10540 -14.37548 -14.35585 -10.29292
 Alpha  occ. eigenvalues --  -10.28371 -10.24099 -10.22699 -10.18630 -10.17443
 Alpha  occ. eigenvalues --   -1.04095  -1.02328  -0.93099  -0.91742  -0.77971
 Alpha  occ. eigenvalues --   -0.72600  -0.71332  -0.64497  -0.59491  -0.55979
 Alpha  occ. eigenvalues --   -0.53733  -0.49218  -0.47784  -0.46328  -0.45309
 Alpha  occ. eigenvalues --   -0.43893  -0.42488  -0.40776  -0.40004  -0.39908
 Alpha  occ. eigenvalues --   -0.38703  -0.38138  -0.36862  -0.35900  -0.34769
 Alpha  occ. eigenvalues --   -0.26517  -0.26108  -0.25019  -0.23877
 Alpha virt. eigenvalues --    0.01548   0.03238   0.06331   0.08467   0.11449
 Alpha virt. eigenvalues --    0.13468   0.13935   0.14847   0.15649   0.15848
 Alpha virt. eigenvalues --    0.16391   0.17264   0.18124   0.19256   0.20366

 Mulliken atomic charges:
              1
     1  H    0.185033
     2  C   -0.548014
     3  H    0.154849
     4  H    0.183628
     5  C    0.594576
     6  O   -0.499191
     7  N   -0.603773
     8  H    0.331046
     9  C    0.013240
    10  H    0.130551
    11  C   -0.452679
    12  H    0.175404
    13  H    0.134700
    14  H    0.198045
    15  C    0.554970
    16  O   -0.515557
    17  N   -0.582609
    18  H    0.329158
    19  C   -0.313725
    20  H    0.207297
    21  H    0.160504
    22  H    0.162546
 Sum of Mulliken atomic charges =   0.00000

 Dipole moment (field-independent basis, Debye):
    X=              3.6836    Y=             -1.3091    Z=             -2.6317  Tot=              4.7126
 Quadrupole moment (field-independent basis, Debye-Ang):
   XX=            -57.9511   YY=            -58.3004   ZZ=            -61.4413
   XY=              8.2914   XZ=             -6.0788   YZ=              0.8137

 Normal termination of Gaussian 09 at Fri Feb 10 19:28:24 2017.
