 Gaussian 09, Revision A.02,
 Gaussian 09:  EM64L-G09RevA.02 11-Jun-2009

 ----------------------------------------------------------------------
 # b3lyp/6-31G* Opt=(ModRedundant, maxcycles=1000, calcfc) geom=nocrowd
 ----------------------------------------------------------------------

 ------------------
 Phi Psi fixed scan
 ------------------
 Symbolic Z-matrix:
 Charge =  0 Multiplicity = 1

 SCF Done:  E(RB3LYP) =  -495.818724852     A.U. after   15 cycles

  Exact polarizability:   0.000   0.000   0.000   0.000   0.000   0.000
 Approx polarizability: 120.649  -0.401 117.783 -12.434   5.108  97.644

 SCF Done:  E(RB3LYP) =  -495.827534628     A.U. after   16 cycles
 SCF Done:  E(RB3LYP) =  -495.836099181     A.U. after   13 cycles
 SCF Done:  E(RB3LYP) =  -495.827750091     A.U. after   14 cycles
 SCF Done:  E(RB3LYP) =  -495.838561496     A.U. after   13 cycles
 SCF Done:  E(RB3LYP) =  -495.839349806     A.U. after   11 cycles
 SCF Done:  E(RB3LYP) =  -495.840415985     A.U. after   12 cycles
 SCF Done:  E(RB3LYP) =  -495.840769893     A.U. after   12 cycles
 SCF Done:  E(RB3LYP) =  -495.841382181     A.U. after   12 cycles
 SCF Done:  E(RB3LYP) =  -495.841065660     A.U. after   12 cycles
 SCF Done:  E(RB3LYP) =  -495.841561175     A.U. after   12 cycles
 SCF Done:  E(RB3LYP) =  -495.842128024     A.U. after   12 cycles
 SCF Done:  E(RB3LYP) =  -495.842135477     A.U. after   11 cycles
 SCF Done:  E(RB3LYP) =  -495.842246301     A.U. after   11 cycles
 SCF Done:  E(RB3LYP) =  -495.842361960     A.U. after   12 cycles
 SCF Done:  E(RB3LYP) =  -495.842382194     A.U. after   11 cycles
 SCF Done:  E(RB3LYP) =  -495.842390556     A.U. after    8 cycles
 SCF Done:  E(RB3LYP) =  -495.842391311     A.U. after    7 cycles
 SCF Done:  E(RB3LYP) =  -495.842391733     A.U. after    7 cycles
 SCF Done:  E(RB3LYP) =  -495.842391802     A.U. after    7 cycles
 Optimization completed.
    -- Stationary point found.

                         Standard orientation:
 ---------------------------------------------------------------------
 Center     Atomic      Atomic             Coordinates (Angstroms)
 Number     Number       Type             X           Y           Z
 ---------------------------------------------------------------------
      1          1           0       -4.167122   -1.114367    0.075630
      2          6           0       -3.103461   -1.356943    0.082215
      3          1           0       -2.894349   -2.112191   -0.683093
      4          1           0       -2.848419   -1.787257    1.058519
      5          6           0       -2.307379   -0.075060   -0.138451
      6          8           0       -2.798747    1.030672    0.038756
      7          7           0       -1.022135   -0.294392   -0.592363
      8          1           0       -0.718661   -1.255924   -0.468859
      9          6           0        0.111638    0.620988   -0.441612
     10          1           0        0.341056    1.074746   -1.416944
     11          6           0       -0.080056    1.752032    0.589182
     12          1           0       -0.260072    1.333349    1.584222
     13          1           0        0.830801    2.360085    0.630533
     14          1           0       -0.928868    2.379847    0.323858
     15          6           0        1.314785   -0.234043    0.011518
     16          8           0        1.166067   -1.263667    0.662701
     17          7           0        2.528446    0.231777   -0.391170
     18          1           0        2.560600    1.092103   -0.919994
     19          6           0        3.782880   -0.378647    0.016629
     20          1           0        3.541998   -1.318041    0.515534
     21          1           0        4.413116   -0.583631   -0.855432
     22          1           0        4.336739    0.263591    0.712217
 ---------------------------------------------------------------------

 The electronic state is 1-A.
 Alpha  occ. eigenvalues --  -19.12532 -19.10403 -14.37636 -14.34849 -10.29654
 Alpha  occ. eigenvalues --  -10.28097 -10.24128 -10.22825 -10.18309 -10.18118
 Alpha  occ. eigenvalues --   -1.04562  -1.02119  -0.93358  -0.91444  -0.78071
 Alpha  occ. eigenvalues --   -0.72600  -0.71152  -0.64805  -0.59775  -0.55379
 Alpha  occ. eigenvalues --   -0.53773  -0.49162  -0.47637  -0.46205  -0.45090
 Alpha  occ. eigenvalues --   -0.44046  -0.42905  -0.40836  -0.40384  -0.40075
 Alpha  occ. eigenvalues --   -0.38692  -0.38366  -0.36805  -0.36446  -0.34537
 Alpha  occ. eigenvalues --   -0.26621  -0.26432  -0.25246  -0.23665
 Alpha virt. eigenvalues --    0.01673   0.03113   0.06196   0.09809   0.11351
 Alpha virt. eigenvalues --    0.13778   0.14148   0.14326   0.15237   0.15965
 Alpha virt. eigenvalues --    0.16325   0.17471   0.18138   0.18823   0.19796

 Mulliken atomic charges:
              1
     1  H    0.182903
     2  C   -0.547190
     3  H    0.161011
     4  H    0.180134
     5  C    0.584168
     6  O   -0.501625
     7  N   -0.605269
     8  H    0.339324
     9  C   -0.001387
    10  H    0.143301
    11  C   -0.451920
    12  H    0.165533
    13  H    0.128774
    14  H    0.207011
    15  C    0.572922
    16  O   -0.522773
    17  N   -0.583529
    18  H    0.329901
    19  C   -0.312862
    20  H    0.206995
    21  H    0.161487
    22  H    0.163089
 Sum of Mulliken atomic charges =   0.00000

 Dipole moment (field-independent basis, Debye):
    X=              3.9592    Y=              0.0144    Z=             -1.4090  Tot=              4.2024
 Quadrupole moment (field-independent basis, Debye-Ang):
   XX=            -56.0682   YY=            -60.8136   ZZ=            -60.3926
   XY=             11.1949   XZ=             -2.9346   YZ=              0.4433

 Normal termination of Gaussian 09 at Fri Feb 10 19:29:12 2017.
