 Gaussian 09, Revision A.02,
 Gaussian 09:  EM64L-G09RevA.02 11-Jun-2009

 ----------------------------------------------------------------------
 # b3lyp/6-31G* Opt=(ModRedundant, maxcycles=1000, calcfc) geom=nocrowd
 ----------------------------------------------------------------------

 ------------------
 Phi Psi fixed scan
 ------------------
 Symbolic Z-matrix:
 Charge =  0 Multiplicity = 1

 SCF Done:  E(RB3LYP) =  -495.807901056     A.U. after   15 cycles

  Exact polarizability:   0.000   0.000   0.000   0.000   0.000   0.000
 Approx polarizability: 116.749   1.527 133.854  -4.361  -7.304  86.704

 SCF Done:  E(RB3LYP) =  -495.818627456     A.U. after   13 cycles
 SCF Done:  E(RB3LYP) =  -495.831323161     A.U. after   15 cycles
 SCF Done:  E(RB3LYP) =  -495.817758359     A.U. after   16 cycles
 SCF Done:  E(RB3LYP) =  -495.833900993     A.U. after   16 cycles
 SCF Done:  E(RB3LYP) =  -495.835006502     A.U. after   12 cycles
 SCF Done:  E(RB3LYP) =  -495.836084770     A.U. after   12 cycles
 SCF Done:  E(RB3LYP) =  -495.836840784     A.U. after   16 cycles
 SCF Done:  E(RB3LYP) =  -495.646146743     A.U. after   17 cycles
 SCF Done:  E(RB3LYP) =  -495.837017931     A.U. after   15 cycles
 SCF Done:  E(RB3LYP) =  -495.837949539     A.U. after   12 cycles
 SCF Done:  E(RB3LYP) =  -495.838020897     A.U. after   12 cycles
 SCF Done:  E(RB3LYP) =  -495.838081648     A.U. after   11 cycles
 SCF Done:  E(RB3LYP) =  -495.838093356     A.U. after   10 cycles
 SCF Done:  E(RB3LYP) =  -495.838094621     A.U. after    9 cycles
 SCF Done:  E(RB3LYP) =  -495.838094875     A.U. after    8 cycles
 SCF Done:  E(RB3LYP) =  -495.838095134     A.U. after    8 cycles
 SCF Done:  E(RB3LYP) =  -495.838095729     A.U. after    8 cycles
 SCF Done:  E(RB3LYP) =  -495.838096493     A.U. after    9 cycles
 SCF Done:  E(RB3LYP) =  -495.838096774     A.U. after    8 cycles
 Optimization completed.
    -- Stationary point found.

                         Standard orientation:
 ---------------------------------------------------------------------
 Center     Atomic      Atomic             Coordinates (Angstroms)
 Number     Number       Type             X           Y           Z
 ---------------------------------------------------------------------
      1          1           0       -3.723680   -1.646953    0.578077
      2          6           0       -3.028534   -1.457131   -0.241783
      3          1           0       -3.618180   -1.204772   -1.131532
      4          1           0       -2.460579   -2.369314   -0.454625
      5          6           0       -2.147759   -0.267801    0.135898
      6          8           0       -2.552904    0.619344    0.866651
      7          7           0       -0.877164   -0.325454   -0.414040
      8          1           0       -0.785163   -1.041599   -1.125001
      9          6           0        0.104199    0.765290   -0.584773
     10          1           0        0.190400    0.956954   -1.664784
     11          6           0       -0.256454    2.091453    0.091708
     12          1           0       -0.372240    1.977424    1.170459
     13          1           0        0.564350    2.784167   -0.106279
     14          1           0       -1.187259    2.498710   -0.305567
     15          6           0        1.531102    0.334316   -0.157299
     16          8           0        2.435127    1.157590   -0.099552
     17          7           0        1.732689   -1.010151   -0.008239
     18          1           0        0.910334   -1.556259    0.213109
     19          6           0        3.023173   -1.520344    0.430310
     20          1           0        3.803087   -0.899597   -0.012748
     21          1           0        3.136518   -1.486007    1.521985
     22          1           0        3.141592   -2.553692    0.091702
 ---------------------------------------------------------------------

 The electronic state is 1-A.
 Alpha  occ. eigenvalues --  -19.11731 -19.11292 -14.37170 -14.36305 -10.29794
 Alpha  occ. eigenvalues --  -10.28502 -10.24315 -10.22001 -10.19986 -10.17058
 Alpha  occ. eigenvalues --   -1.03793  -1.03193  -0.93612  -0.91526  -0.78148
 Alpha  occ. eigenvalues --   -0.73059  -0.71139  -0.64510  -0.58834  -0.56139
 Alpha  occ. eigenvalues --   -0.53606  -0.51277  -0.47386  -0.45837  -0.45158
 Alpha  occ. eigenvalues --   -0.44712  -0.42270  -0.41353  -0.40617  -0.39414
 Alpha  occ. eigenvalues --   -0.38868  -0.37448  -0.36637  -0.36195  -0.35057
 Alpha  occ. eigenvalues --   -0.28230  -0.25782  -0.25254  -0.23896
 Alpha virt. eigenvalues --    0.01693   0.02106   0.05415   0.10057   0.11608
 Alpha virt. eigenvalues --    0.13230   0.13443   0.13970   0.15252   0.16124
 Alpha virt. eigenvalues --    0.17146   0.17728   0.17848   0.18728   0.19054

 Mulliken atomic charges:
              1
     1  H    0.192085
     2  C   -0.545501
     3  H    0.182776
     4  H    0.147387
     5  C    0.588514
     6  O   -0.483251
     7  N   -0.631013
     8  H    0.322753
     9  C   -0.043043
    10  H    0.171289
    11  C   -0.435626
    12  H    0.172994
    13  H    0.173419
    14  H    0.160217
    15  C    0.603891
    16  O   -0.514814
    17  N   -0.597182
    18  H    0.329619
    19  C   -0.306084
    20  H    0.197098
    21  H    0.162807
    22  H    0.151665
 Sum of Mulliken atomic charges =   0.00000

 Dipole moment (field-independent basis, Debye):
    X=             -0.5825    Y=             -4.5290    Z=             -2.0467  Tot=              5.0040
 Quadrupole moment (field-independent basis, Debye-Ang):
   XX=            -67.3942   YY=            -57.7033   ZZ=            -59.0736
   XY=             -1.7962   XZ=              6.3065   YZ=             -1.4800

 Normal termination of Gaussian 09 at Fri Feb 10 19:39:50 2017.
