 Gaussian 09, Revision A.02,
 Gaussian 09:  EM64L-G09RevA.02 11-Jun-2009

 ----------------------------------------------------------------------
 # b3lyp/6-31G* Opt=(ModRedundant, maxcycles=1000, calcfc) geom=nocrowd
 ----------------------------------------------------------------------

 ------------------
 Phi Psi fixed scan
 ------------------
 Symbolic Z-matrix:
 Charge =  0 Multiplicity = 1

 SCF Done:  E(RB3LYP) =  -495.814277787     A.U. after   15 cycles

  Exact polarizability:   0.000   0.000   0.000   0.000   0.000   0.000
 Approx polarizability: 115.198   0.794 134.689  -0.165   8.633  87.714

 SCF Done:  E(RB3LYP) =  -495.825007835     A.U. after   13 cycles
 SCF Done:  E(RB3LYP) =  -495.835433502     A.U. after   15 cycles
 SCF Done:  E(RB3LYP) =  -495.838243505     A.U. after   16 cycles
 SCF Done:  E(RB3LYP) =  -495.833976825     A.U. after   13 cycles
 SCF Done:  E(RB3LYP) =  -495.840583308     A.U. after   13 cycles
 SCF Done:  E(RB3LYP) =  -495.841123896     A.U. after   12 cycles
 SCF Done:  E(RB3LYP) =  -495.841778310     A.U. after   12 cycles
 SCF Done:  E(RB3LYP) =  -495.841851052     A.U. after   12 cycles
 SCF Done:  E(RB3LYP) =  -495.841880594     A.U. after   11 cycles
 SCF Done:  E(RB3LYP) =  -495.842111434     A.U. after   13 cycles
 SCF Done:  E(RB3LYP) =  -495.842237248     A.U. after   11 cycles
 SCF Done:  E(RB3LYP) =  -495.842328379     A.U. after   11 cycles
 SCF Done:  E(RB3LYP) =  -495.842355427     A.U. after   12 cycles
 SCF Done:  E(RB3LYP) =  -495.842385507     A.U. after   11 cycles
 SCF Done:  E(RB3LYP) =  -495.842396808     A.U. after   10 cycles
 SCF Done:  E(RB3LYP) =  -495.842401637     A.U. after   10 cycles
 SCF Done:  E(RB3LYP) =  -495.842403968     A.U. after   10 cycles
 SCF Done:  E(RB3LYP) =  -495.842404998     A.U. after    7 cycles
 SCF Done:  E(RB3LYP) =  -495.842405234     A.U. after    7 cycles
 Optimization completed.
    -- Stationary point found.

                         Standard orientation:
 ---------------------------------------------------------------------
 Center     Atomic      Atomic             Coordinates (Angstroms)
 Number     Number       Type             X           Y           Z
 ---------------------------------------------------------------------
      1          1           0       -4.071216   -1.156744    0.005674
      2          6           0       -3.089664   -1.301688    0.466696
      3          1           0       -2.666458   -2.248072    0.116444
      4          1           0       -3.244335   -1.361314    1.548812
      5          6           0       -2.227607   -0.077939    0.166133
      6          8           0       -2.612706    1.048520    0.458566
      7          7           0       -1.044904   -0.371552   -0.453500
      8          1           0       -0.811293   -1.347193   -0.594492
      9          6           0        0.087477    0.500340   -0.780940
     10          1           0        0.157863    0.567628   -1.878054
     11          6           0       -0.006437    1.925999   -0.230957
     12          1           0       -0.027705    1.946779    0.862577
     13          1           0        0.851742    2.506467   -0.592246
     14          1           0       -0.918581    2.411527   -0.573576
     15          6           0        1.341881   -0.307541   -0.356579
     16          8           0        1.409175   -1.500040   -0.650387
     17          7           0        2.309293    0.346102    0.334412
     18          1           0        2.167580    1.316222    0.570699
     19          6           0        3.531453   -0.305623    0.776678
     20          1           0        3.483424   -1.346039    0.453884
     21          1           0        4.413893    0.170360    0.333773
     22          1           0        3.619986   -0.270598    1.868499
 ---------------------------------------------------------------------

 The electronic state is 1-A.
 Alpha  occ. eigenvalues --  -19.11986 -19.09755 -14.37531 -14.35356 -10.29448
 Alpha  occ. eigenvalues --  -10.28167 -10.24380 -10.22649 -10.18775 -10.18414
 Alpha  occ. eigenvalues --   -1.04167  -1.01737  -0.93178  -0.91590  -0.78312
 Alpha  occ. eigenvalues --   -0.72561  -0.71043  -0.65854  -0.59852  -0.55726
 Alpha  occ. eigenvalues --   -0.53715  -0.50464  -0.47007  -0.45846  -0.45245
 Alpha  occ. eigenvalues --   -0.44041  -0.42623  -0.41339  -0.40194  -0.39475
 Alpha  occ. eigenvalues --   -0.39145  -0.38604  -0.37354  -0.36508  -0.34606
 Alpha  occ. eigenvalues --   -0.26691  -0.26374  -0.24043  -0.23620
 Alpha virt. eigenvalues --    0.01632   0.04119   0.07132   0.09799   0.11060
 Alpha virt. eigenvalues --    0.12948   0.14319   0.14687   0.15054   0.15739
 Alpha virt. eigenvalues --    0.16089   0.18114   0.18319   0.18586   0.19556

 Mulliken atomic charges:
              1
     1  H    0.182591
     2  C   -0.533846
     3  H    0.148037
     4  H    0.181058
     5  C    0.593678
     6  O   -0.519924
     7  N   -0.610569
     8  H    0.344329
     9  C   -0.002935
    10  H    0.169633
    11  C   -0.477383
    12  H    0.165386
    13  H    0.132133
    14  H    0.204034
    15  C    0.595859
    16  O   -0.533854
    17  N   -0.594521
    18  H    0.338282
    19  C   -0.315047
    20  H    0.208021
    21  H    0.162035
    22  H    0.163005
 Sum of Mulliken atomic charges =   0.00000

 Dipole moment (field-independent basis, Debye):
    X=              2.9343    Y=              0.4820    Z=              0.4604  Tot=              3.0090
 Quadrupole moment (field-independent basis, Debye-Ang):
   XX=            -57.9075   YY=            -62.0774   ZZ=            -59.1886
   XY=             12.1542   XZ=              5.1858   YZ=             -2.8613

 Normal termination of Gaussian 09 at Fri Feb 10 19:36:17 2017.
