 Gaussian 09, Revision A.02,
 Gaussian 09:  EM64L-G09RevA.02 11-Jun-2009

 ----------------------------------------------------------------------
 # b3lyp/6-31G* Opt=(ModRedundant, maxcycles=1000, calcfc) geom=nocrowd
 ----------------------------------------------------------------------

 ------------------
 Phi Psi fixed scan
 ------------------
 Symbolic Z-matrix:
 Charge =  0 Multiplicity = 1

 SCF Done:  E(RB3LYP) =  -495.812349573     A.U. after   15 cycles

  Exact polarizability:   0.000   0.000   0.000   0.000   0.000   0.000
 Approx polarizability: 111.612  -7.174 128.432  -1.839  14.230  97.568

 SCF Done:  E(RB3LYP) =  -495.823147218     A.U. after   13 cycles
 SCF Done:  E(RB3LYP) =  -495.834047819     A.U. after   15 cycles
 SCF Done:  E(RB3LYP) =  -495.835759542     A.U. after   15 cycles
 SCF Done:  E(RB3LYP) =  -495.837054689     A.U. after   13 cycles
 SCF Done:  E(RB3LYP) =  -495.839031351     A.U. after   13 cycles
 SCF Done:  E(RB3LYP) =  -495.839502541     A.U. after   12 cycles
 SCF Done:  E(RB3LYP) =  -495.839738204     A.U. after   16 cycles
 SCF Done:  E(RB3LYP) =  -495.815447287     A.U. after   15 cycles
 SCF Done:  E(RB3LYP) =  -495.839746912     A.U. after   14 cycles
 SCF Done:  E(RB3LYP) =  -495.840200652     A.U. after   11 cycles
 SCF Done:  E(RB3LYP) =  -495.840203119     A.U. after   10 cycles
 SCF Done:  E(RB3LYP) =  -495.840213077     A.U. after   10 cycles
 SCF Done:  E(RB3LYP) =  -495.840221003     A.U. after   10 cycles
 SCF Done:  E(RB3LYP) =  -495.840221117     A.U. after    6 cycles
 SCF Done:  E(RB3LYP) =  -495.840222128     A.U. after    8 cycles
 SCF Done:  E(RB3LYP) =  -495.840222439     A.U. after    7 cycles
 SCF Done:  E(RB3LYP) =  -495.840224635     A.U. after   10 cycles
 SCF Done:  E(RB3LYP) =  -495.840223544     A.U. after   10 cycles
 SCF Done:  E(RB3LYP) =  -495.840223788     A.U. after    7 cycles
 Optimization completed on the basis of negligible forces.
    -- Stationary point found.

                         Standard orientation:
 ---------------------------------------------------------------------
 Center     Atomic      Atomic             Coordinates (Angstroms)
 Number     Number       Type             X           Y           Z
 ---------------------------------------------------------------------
      1          1           0       -3.964318   -1.237443   -0.106634
      2          6           0       -3.022919   -1.376439    0.434834
      3          1           0       -2.563326   -2.314914    0.109519
      4          1           0       -3.267138   -1.448312    1.498603
      5          6           0       -2.151843   -0.140879    0.221477
      6          8           0       -2.505764    0.957562    0.631965
      7          7           0       -0.988661   -0.389299   -0.455613
      8          1           0       -0.818841   -1.340036   -0.757146
      9          6           0        0.081628    0.530958   -0.868480
     10          1           0        0.093854    0.559385   -1.966154
     11          6           0       -0.055145    1.965670   -0.354786
     12          1           0       -0.135277    2.021347    0.734020
     13          1           0        0.817796    2.539158   -0.687840
     14          1           0       -0.955605    2.435411   -0.750488
     15          6           0        1.394056   -0.199424   -0.494892
     16          8           0        1.731554   -1.186909   -1.143338
     17          7           0        2.063865    0.247899    0.599130
     18          1           0        1.704655    1.052574    1.090646
     19          6           0        3.262492   -0.400056    1.103772
     20          1           0        3.511438   -1.208547    0.415416
     21          1           0        4.099345    0.305862    1.151592
     22          1           0        3.095050   -0.818889    2.103281
 ---------------------------------------------------------------------

 The electronic state is 1-A.
 Alpha  occ. eigenvalues --  -19.11537 -19.10253 -14.37060 -14.36149 -10.28956
 Alpha  occ. eigenvalues --  -10.28678 -10.24194 -10.22358 -10.18906 -10.18757
 Alpha  occ. eigenvalues --   -1.03685  -1.02247  -0.92773  -0.92030  -0.78379
 Alpha  occ. eigenvalues --   -0.72745  -0.71003  -0.65873  -0.59339  -0.56355
 Alpha  occ. eigenvalues --   -0.53499  -0.50905  -0.46772  -0.45711  -0.45144
 Alpha  occ. eigenvalues --   -0.44178  -0.42542  -0.41298  -0.40224  -0.39739
 Alpha  occ. eigenvalues --   -0.38840  -0.38534  -0.37709  -0.36442  -0.35122
 Alpha  occ. eigenvalues --   -0.26689  -0.25885  -0.24249  -0.23856
 Alpha virt. eigenvalues --    0.01575   0.03909   0.07226   0.08533   0.11199
 Alpha virt. eigenvalues --    0.12638   0.13957   0.14934   0.15697   0.15989
 Alpha virt. eigenvalues --    0.16750   0.17932   0.18041   0.18475   0.19060

 Mulliken atomic charges:
              1
     1  H    0.184421
     2  C   -0.534799
     3  H    0.146171
     4  H    0.183729
     5  C    0.591736
     6  O   -0.516075
     7  N   -0.607841
     8  H    0.337688
     9  C    0.000970
    10  H    0.167592
    11  C   -0.468458
    12  H    0.165222
    13  H    0.144311
    14  H    0.189901
    15  C    0.579203
    16  O   -0.528131
    17  N   -0.585931
    18  H    0.336160
    19  C   -0.313570
    20  H    0.205943
    21  H    0.160220
    22  H    0.161541
 Sum of Mulliken atomic charges =   0.00000

 Dipole moment (field-independent basis, Debye):
    X=              1.5599    Y=             -0.0647    Z=              1.1057  Tot=              1.9131
 Quadrupole moment (field-independent basis, Debye-Ang):
   XX=            -60.8402   YY=            -60.3306   ZZ=            -59.8743
   XY=             10.9791   XZ=              8.7911   YZ=             -3.5865

 Normal termination of Gaussian 09 at Fri Feb 10 19:50:07 2017.
