 Gaussian 09, Revision A.02,
 Gaussian 09:  EM64L-G09RevA.02 11-Jun-2009

 ----------------------------------------------------------------------
 # b3lyp/6-31G* Opt=(ModRedundant, maxcycles=1000, calcfc) geom=nocrowd
 ----------------------------------------------------------------------

 ------------------
 Phi Psi fixed scan
 ------------------
 Symbolic Z-matrix:
 Charge =  0 Multiplicity = 1

 SCF Done:  E(RB3LYP) =  -495.806954184     A.U. after   15 cycles

  Exact polarizability:   0.000   0.000   0.000   0.000   0.000   0.000
 Approx polarizability: 115.800   4.192 134.068  -2.570 -10.487  87.025

 SCF Done:  E(RB3LYP) =  -495.816810423     A.U. after   13 cycles
 SCF Done:  E(RB3LYP) =  -495.828387150     A.U. after   14 cycles
 SCF Done:  E(RB3LYP) =  -495.814144168     A.U. after   15 cycles
 SCF Done:  E(RB3LYP) =  -495.830773900     A.U. after   13 cycles
 SCF Done:  E(RB3LYP) =  -495.831745116     A.U. after   11 cycles
 SCF Done:  E(RB3LYP) =  -495.832866198     A.U. after   12 cycles
 SCF Done:  E(RB3LYP) =  -495.833636989     A.U. after   13 cycles
 SCF Done:  E(RB3LYP) =  -495.834285231     A.U. after   14 cycles
 SCF Done:  E(RB3LYP) =  -495.834640514     A.U. after   12 cycles
 SCF Done:  E(RB3LYP) =  -495.835055657     A.U. after   10 cycles
 SCF Done:  E(RB3LYP) =  -495.835068833     A.U. after   11 cycles
 SCF Done:  E(RB3LYP) =  -495.835041808     A.U. after   16 cycles
 SCF Done:  E(RB3LYP) =  -495.835076217     A.U. after   11 cycles
 SCF Done:  E(RB3LYP) =  -495.835155355     A.U. after   16 cycles
 SCF Done:  E(RB3LYP) =  -495.835161530     A.U. after   10 cycles
 SCF Done:  E(RB3LYP) =  -495.835163086     A.U. after   10 cycles
 SCF Done:  E(RB3LYP) =  -495.835163281     A.U. after    9 cycles
 SCF Done:  E(RB3LYP) =  -495.835163274     A.U. after    7 cycles
 SCF Done:  E(RB3LYP) =  -495.835163298     A.U. after    6 cycles
 Optimization completed.
    -- Stationary point found.

                         Standard orientation:
 ---------------------------------------------------------------------
 Center     Atomic      Atomic             Coordinates (Angstroms)
 Number     Number       Type             X           Y           Z
 ---------------------------------------------------------------------
      1          1           0        3.736417   -1.634974   -0.673183
      2          6           0        3.026537   -1.503702    0.145522
      3          1           0        3.600352   -1.324658    1.063007
      4          1           0        2.449110   -2.425335    0.275937
      5          6           0        2.160210   -0.282479   -0.156794
      6          8           0        2.586938    0.657088   -0.804662
      7          7           0        0.874027   -0.378617    0.352393
      8          1           0        0.780943   -1.136353    1.018887
      9          6           0       -0.094852    0.710812    0.607301
     10          1           0       -0.206411    0.788508    1.699702
     11          6           0        0.309540    2.089190    0.081446
     12          1           0        0.445703    2.085478   -1.000428
     13          1           0       -0.497168    2.781524    0.330699
     14          1           0        1.240475    2.426966    0.539127
     15          6           0       -1.513232    0.340780    0.096913
     16          8           0       -2.344770    1.205392   -0.141451
     17          7           0       -1.822043   -0.995374    0.115105
     18          1           0       -1.044604   -1.627149   -0.025124
     19          6           0       -3.123843   -1.445361   -0.360272
     20          1           0       -3.888871   -0.780815    0.043848
     21          1           0       -3.200841   -1.426524   -1.455443
     22          1           0       -3.302514   -2.464011   -0.005311
 ---------------------------------------------------------------------

 The electronic state is 1-A.
 Alpha  occ. eigenvalues --  -19.11676 -19.11588 -14.37121 -14.36322 -10.29718
 Alpha  occ. eigenvalues --  -10.28585 -10.24345 -10.22025 -10.19941 -10.16887
 Alpha  occ. eigenvalues --   -1.03797  -1.03341  -0.93543  -0.91555  -0.78099
 Alpha  occ. eigenvalues --   -0.73001  -0.71098  -0.64397  -0.58920  -0.55949
 Alpha  occ. eigenvalues --   -0.53490  -0.51257  -0.47348  -0.46032  -0.45065
 Alpha  occ. eigenvalues --   -0.44714  -0.42285  -0.41347  -0.40566  -0.39567
 Alpha  occ. eigenvalues --   -0.38301  -0.37425  -0.36500  -0.36187  -0.35332
 Alpha  occ. eigenvalues --   -0.28391  -0.25878  -0.25186  -0.23922
 Alpha virt. eigenvalues --    0.01694   0.01729   0.05025   0.10146   0.11487
 Alpha virt. eigenvalues --    0.12618   0.13759   0.14173   0.15052   0.16212
 Alpha virt. eigenvalues --    0.17128   0.17861   0.17931   0.18903   0.19009

 Mulliken atomic charges:
              1
     1  H    0.192517
     2  C   -0.545903
     3  H    0.181870
     4  H    0.147302
     5  C    0.589620
     6  O   -0.482365
     7  N   -0.623624
     8  H    0.319895
     9  C   -0.054919
    10  H    0.169758
    11  C   -0.430424
    12  H    0.176720
    13  H    0.169636
    14  H    0.156692
    15  C    0.608504
    16  O   -0.507526
    17  N   -0.596157
    18  H    0.324365
    19  C   -0.303917
    20  H    0.193903
    21  H    0.163608
    22  H    0.150444
 Sum of Mulliken atomic charges =   0.00000

 Dipole moment (field-independent basis, Debye):
    X=              0.2746    Y=             -4.7585    Z=              2.3486  Tot=              5.3137
 Quadrupole moment (field-independent basis, Debye-Ang):
   XX=            -66.4303   YY=            -57.7834   ZZ=            -59.2977
   XY=              1.3780   XZ=              4.7815   YZ=              1.8583

 Normal termination of Gaussian 09 at Fri Feb 10 19:45:16 2017.
