 Gaussian 09, Revision A.02,
 Gaussian 09:  EM64L-G09RevA.02 11-Jun-2009

 ----------------------------------------------------------------------
 # b3lyp/6-31G* Opt=(ModRedundant, maxcycles=1000, calcfc) geom=nocrowd
 ----------------------------------------------------------------------

 ------------------
 Phi Psi fixed scan
 ------------------
 Symbolic Z-matrix:
 Charge =  0 Multiplicity = 1

 SCF Done:  E(RB3LYP) =  -495.818141378     A.U. after   16 cycles

  Exact polarizability:   0.000   0.000   0.000   0.000   0.000   0.000
 Approx polarizability: 117.282   2.708 120.474  13.234   1.619  99.362

 SCF Done:  E(RB3LYP) =  -495.827427303     A.U. after   16 cycles
 SCF Done:  E(RB3LYP) =  -495.836604961     A.U. after   13 cycles
 SCF Done:  E(RB3LYP) =  -495.826311054     A.U. after   14 cycles
 SCF Done:  E(RB3LYP) =  -495.839290047     A.U. after   14 cycles
 SCF Done:  E(RB3LYP) =  -495.840177397     A.U. after   12 cycles
 SCF Done:  E(RB3LYP) =  -495.841210118     A.U. after   13 cycles
 SCF Done:  E(RB3LYP) =  -495.841502103     A.U. after   13 cycles
 SCF Done:  E(RB3LYP) =  -495.841405002     A.U. after   12 cycles
 SCF Done:  E(RB3LYP) =  -495.841516161     A.U. after   12 cycles
 SCF Done:  E(RB3LYP) =  -495.838955158     A.U. after   13 cycles
 SCF Done:  E(RB3LYP) =  -495.841716206     A.U. after   13 cycles
 SCF Done:  E(RB3LYP) =  -495.841751144     A.U. after   10 cycles
 SCF Done:  E(RB3LYP) =  -495.841770675     A.U. after   11 cycles
 SCF Done:  E(RB3LYP) =  -495.841773559     A.U. after   10 cycles
 SCF Done:  E(RB3LYP) =  -495.841775401     A.U. after   10 cycles
 SCF Done:  E(RB3LYP) =  -495.841775925     A.U. after    8 cycles
 SCF Done:  E(RB3LYP) =  -495.841776260     A.U. after    8 cycles
 SCF Done:  E(RB3LYP) =  -495.841776419     A.U. after    8 cycles
 SCF Done:  E(RB3LYP) =  -495.841776421     A.U. after    7 cycles
 Optimization completed.
    -- Stationary point found.

                         Standard orientation:
 ---------------------------------------------------------------------
 Center     Atomic      Atomic             Coordinates (Angstroms)
 Number     Number       Type             X           Y           Z
 ---------------------------------------------------------------------
      1          1           0       -3.551970   -1.787327    0.388904
      2          6           0       -3.034525   -1.336108   -0.460794
      3          1           0       -3.796108   -0.897347   -1.115645
      4          1           0       -2.506525   -2.116499   -1.018831
      5          6           0       -2.129166   -0.222052    0.060468
      6          8           0       -2.489845    0.516263    0.963319
      7          7           0       -0.908286   -0.150536   -0.577849
      8          1           0       -0.798876   -0.776914   -1.365004
      9          6           0        0.125506    0.894162   -0.513812
     10          1           0        0.155418    1.406622   -1.483660
     11          6           0       -0.073887    1.958916    0.574829
     12          1           0       -0.092545    1.518519    1.573936
     13          1           0        0.769166    2.652850    0.504192
     14          1           0       -1.006626    2.504859    0.431780
     15          6           0        1.535706    0.283759   -0.355186
     16          8           0        2.517336    0.883394   -0.777354
     17          7           0        1.590969   -0.903482    0.309064
     18          1           0        0.718925   -1.288735    0.644359
     19          6           0        2.842583   -1.558742    0.640711
     20          1           0        3.642429   -1.001136    0.151071
     21          1           0        3.019888   -1.559146    1.723232
     22          1           0        2.850806   -2.594489    0.282145
 ---------------------------------------------------------------------

 The electronic state is 1-A.
 Alpha  occ. eigenvalues --  -19.11485 -19.10956 -14.37207 -14.36397 -10.29744
 Alpha  occ. eigenvalues --  -10.28399 -10.24109 -10.22043 -10.19927 -10.17859
 Alpha  occ. eigenvalues --   -1.03636  -1.02911  -0.93562  -0.91593  -0.78363
 Alpha  occ. eigenvalues --   -0.73196  -0.71152  -0.65015  -0.58682  -0.56922
 Alpha  occ. eigenvalues --   -0.53802  -0.51071  -0.47347  -0.45692  -0.45271
 Alpha  occ. eigenvalues --   -0.44228  -0.42547  -0.41296  -0.40705  -0.39903
 Alpha  occ. eigenvalues --   -0.38988  -0.37784  -0.37250  -0.36294  -0.35083
 Alpha  occ. eigenvalues --   -0.27351  -0.25501  -0.25316  -0.23877
 Alpha virt. eigenvalues --    0.02019   0.02680   0.05906   0.09579   0.11900
 Alpha virt. eigenvalues --    0.12319   0.13610   0.14411   0.15906   0.16241
 Alpha virt. eigenvalues --    0.16583   0.17568   0.17798   0.18514   0.18996

 Mulliken atomic charges:
              1
     1  H    0.189167
     2  C   -0.540784
     3  H    0.187391
     4  H    0.144279
     5  C    0.586282
     6  O   -0.493449
     7  N   -0.633011
     8  H    0.325627
     9  C   -0.020615
    10  H    0.169007
    11  C   -0.437835
    12  H    0.163654
    13  H    0.165811
    14  H    0.178276
    15  C    0.576323
    16  O   -0.522336
    17  N   -0.581332
    18  H    0.333530
    19  C   -0.309763
    20  H    0.204108
    21  H    0.161049
    22  H    0.154621
 Sum of Mulliken atomic charges =   0.00000

 Dipole moment (field-independent basis, Debye):
    X=             -0.8824    Y=             -3.7207    Z=             -1.0193  Tot=              3.9574
 Quadrupole moment (field-independent basis, Debye-Ang):
   XX=            -68.5471   YY=            -56.7039   ZZ=            -59.9763
   XY=             -1.6787   XZ=             10.4530   YZ=             -0.2356

 Normal termination of Gaussian 09 at Fri Feb 10 19:41:25 2017.
