 Gaussian 09, Revision A.02,
 Gaussian 09:  EM64L-G09RevA.02 11-Jun-2009

 ----------------------------------------------------------------------
 # b3lyp/6-31G* Opt=(ModRedundant, maxcycles=1000, calcfc) geom=nocrowd
 ----------------------------------------------------------------------

 ------------------
 Phi Psi fixed scan
 ------------------
 Symbolic Z-matrix:
 Charge =  0 Multiplicity = 1

 SCF Done:  E(RB3LYP) =  -495.813457147     A.U. after   15 cycles

  Exact polarizability:   0.000   0.000   0.000   0.000   0.000   0.000
 Approx polarizability: 118.194 -13.957 115.554  -6.683  11.975 104.000

 SCF Done:  E(RB3LYP) =  -495.822770366     A.U. after   13 cycles
 SCF Done:  E(RB3LYP) =  -495.831820490     A.U. after   13 cycles
 SCF Done:  E(RB3LYP) =  -495.827273875     A.U. after   14 cycles
 SCF Done:  E(RB3LYP) =  -495.834966809     A.U. after   14 cycles
 SCF Done:  E(RB3LYP) =  -495.835593501     A.U. after   12 cycles
 SCF Done:  E(RB3LYP) =  -495.836381522     A.U. after   12 cycles
 SCF Done:  E(RB3LYP) =  -495.836714627     A.U. after   12 cycles
 SCF Done:  E(RB3LYP) =  -495.836602210     A.U. after   12 cycles
 SCF Done:  E(RB3LYP) =  -495.836724195     A.U. after   11 cycles
 SCF Done:  E(RB3LYP) =  -495.836875017     A.U. after   13 cycles
 SCF Done:  E(RB3LYP) =  -495.836919820     A.U. after   10 cycles
 SCF Done:  E(RB3LYP) =  -495.836937944     A.U. after   10 cycles
 SCF Done:  E(RB3LYP) =  -495.836944135     A.U. after   10 cycles
 SCF Done:  E(RB3LYP) =  -495.836947721     A.U. after   10 cycles
 SCF Done:  E(RB3LYP) =  -495.836948563     A.U. after    8 cycles
 SCF Done:  E(RB3LYP) =  -495.836949287     A.U. after    9 cycles
 SCF Done:  E(RB3LYP) =  -495.836949461     A.U. after    7 cycles
 SCF Done:  E(RB3LYP) =  -495.836949586     A.U. after    8 cycles
 SCF Done:  E(RB3LYP) =  -495.836949600     A.U. after    6 cycles
 Optimization completed.
    -- Stationary point found.

                         Standard orientation:
 ---------------------------------------------------------------------
 Center     Atomic      Atomic             Coordinates (Angstroms)
 Number     Number       Type             X           Y           Z
 ---------------------------------------------------------------------
      1          1           0       -3.846574   -1.725291   -0.063775
      2          6           0       -2.821773   -1.693313    0.312295
      3          1           0       -2.268121   -2.556686   -0.072081
      4          1           0       -2.863171   -1.770168    1.404940
      5          6           0       -2.208347   -0.347228   -0.066486
      6          8           0       -2.875457    0.676648   -0.069934
      7          7           0       -0.874402   -0.417327   -0.391383
      8          1           0       -0.457747   -1.336427   -0.330945
      9          6           0        0.093187    0.678260   -0.573872
     10          1           0        0.319091    0.762486   -1.649257
     11          6           0       -0.360686    2.045672   -0.061503
     12          1           0       -0.535161    2.006076    1.015272
     13          1           0        0.442947    2.766228   -0.250802
     14          1           0       -1.272181    2.373291   -0.557119
     15          6           0        1.376534    0.251061    0.179211
     16          8           0        1.541052    0.464101    1.371269
     17          7           0        2.265964   -0.453077   -0.588994
     18          1           0        2.120262   -0.473790   -1.588706
     19          6           0        3.539663   -0.925179   -0.069962
     20          1           0        3.491095   -0.866320    1.018073
     21          1           0        3.717369   -1.962621   -0.372227
     22          1           0        4.375024   -0.305577   -0.419502
 ---------------------------------------------------------------------

 The electronic state is 1-A.
 Alpha  occ. eigenvalues --  -19.11960 -19.10368 -14.37520 -14.36195 -10.29195
 Alpha  occ. eigenvalues --  -10.28592 -10.24209 -10.22709 -10.18923 -10.16919
 Alpha  occ. eigenvalues --   -1.04041  -1.02330  -0.93208  -0.91909  -0.77963
 Alpha  occ. eigenvalues --   -0.72561  -0.71530  -0.64475  -0.59292  -0.56462
 Alpha  occ. eigenvalues --   -0.53687  -0.49853  -0.47907  -0.46424  -0.45484
 Alpha  occ. eigenvalues --   -0.43890  -0.42404  -0.40779  -0.39979  -0.39677
 Alpha  occ. eigenvalues --   -0.38392  -0.37634  -0.36924  -0.35808  -0.34984
 Alpha  occ. eigenvalues --   -0.27184  -0.26224  -0.24367  -0.23835
 Alpha virt. eigenvalues --    0.01099   0.03802   0.05897   0.08116   0.11465
 Alpha virt. eigenvalues --    0.13082   0.13522   0.14773   0.15629   0.15814
 Alpha virt. eigenvalues --    0.16940   0.17666   0.18344   0.19201   0.20276

 Mulliken atomic charges:
              1
     1  H    0.185486
     2  C   -0.540190
     3  H    0.142510
     4  H    0.186807
     5  C    0.599543
     6  O   -0.501160
     7  N   -0.605282
     8  H    0.323295
     9  C   -0.002949
    10  H    0.130082
    11  C   -0.440921
    12  H    0.182143
    13  H    0.136893
    14  H    0.186090
    15  C    0.566849
    16  O   -0.501512
    17  N   -0.589313
    18  H    0.326815
    19  C   -0.312527
    20  H    0.206512
    21  H    0.157662
    22  H    0.163165
 Sum of Mulliken atomic charges =   0.00000

 Dipole moment (field-independent basis, Debye):
    X=              3.2390    Y=             -3.3310    Z=             -3.0306  Tot=              5.5472
 Quadrupole moment (field-independent basis, Debye-Ang):
   XX=            -61.6976   YY=            -57.0526   ZZ=            -60.9559
   XY=              3.3024   XZ=             -6.7571   YZ=             -1.2323

 Normal termination of Gaussian 09 at Fri Feb 10 19:49:26 2017.
