 Gaussian 09, Revision A.02,
 Gaussian 09:  EM64L-G09RevA.02 11-Jun-2009

 ----------------------------------------------------------------------
 # b3lyp/6-31G* Opt=(ModRedundant, maxcycles=1000, calcfc) geom=nocrowd
 ----------------------------------------------------------------------

 ------------------
 Phi Psi fixed scan
 ------------------
 Symbolic Z-matrix:
 Charge =  0 Multiplicity = 1

 SCF Done:  E(RB3LYP) =  -495.813313855     A.U. after   15 cycles

  Exact polarizability:   0.000   0.000   0.000   0.000   0.000   0.000
 Approx polarizability: 112.800  -2.794 133.067  -0.292  11.717  91.684

 SCF Done:  E(RB3LYP) =  -495.824125314     A.U. after   13 cycles
 SCF Done:  E(RB3LYP) =  -495.834874075     A.U. after   15 cycles
 SCF Done:  E(RB3LYP) =  -495.837363426     A.U. after   15 cycles
 SCF Done:  E(RB3LYP) =  -495.831766552     A.U. after   14 cycles
 SCF Done:  E(RB3LYP) =  -495.839888740     A.U. after   13 cycles
 SCF Done:  E(RB3LYP) =  -495.840339614     A.U. after   11 cycles
 SCF Done:  E(RB3LYP) =  -495.840886042     A.U. after   13 cycles
 SCF Done:  E(RB3LYP) =  -495.840879901     A.U. after   12 cycles
 SCF Done:  E(RB3LYP) =  -495.840909027     A.U. after   11 cycles
 SCF Done:  E(RB3LYP) =  -495.841337975     A.U. after   11 cycles
 SCF Done:  E(RB3LYP) =  -495.841369103     A.U. after   11 cycles
 SCF Done:  E(RB3LYP) =  -495.841378751     A.U. after   10 cycles
 SCF Done:  E(RB3LYP) =  -495.841393183     A.U. after   11 cycles
 SCF Done:  E(RB3LYP) =  -495.841400286     A.U. after   10 cycles
 SCF Done:  E(RB3LYP) =  -495.841402622     A.U. after   10 cycles
 SCF Done:  E(RB3LYP) =  -495.841402918     A.U. after    8 cycles
 SCF Done:  E(RB3LYP) =  -495.841403180     A.U. after    7 cycles
 SCF Done:  E(RB3LYP) =  -495.841403228     A.U. after    7 cycles
 SCF Done:  E(RB3LYP) =  -495.841403184     A.U. after    6 cycles
 Optimization completed.
    -- Stationary point found.

                         Standard orientation:
 ---------------------------------------------------------------------
 Center     Atomic      Atomic             Coordinates (Angstroms)
 Number     Number       Type             X           Y           Z
 ---------------------------------------------------------------------
      1          1           0       -4.017686   -1.195396   -0.016213
      2          6           0       -3.055773   -1.326101    0.489364
      3          1           0       -2.614037   -2.275865    0.172480
      4          1           0       -3.256614   -1.367777    1.564194
      5          6           0       -2.188161   -0.102157    0.206065
      6          8           0       -2.553531    1.018859    0.540023
      7          7           0       -1.019735   -0.387921   -0.444228
      8          1           0       -0.819189   -1.357544   -0.654414
      9          6           0        0.082366    0.498174   -0.840596
     10          1           0        0.116572    0.521838   -1.939568
     11          6           0       -0.026828    1.939807   -0.339995
     12          1           0       -0.079626    2.001390    0.750624
     13          1           0        0.842912    2.503647   -0.698871
     14          1           0       -0.930159    2.414885   -0.720561
     15          6           0        1.363333   -0.270949   -0.431755
     16          8           0        1.547293   -1.396774   -0.890338
     17          7           0        2.195413    0.319971    0.463105
     18          1           0        1.961276    1.237323    0.811304
     19          6           0        3.405391   -0.321689    0.949917
     20          1           0        3.479574   -1.293740    0.461185
     21          1           0        4.292480    0.274348    0.706629
     22          1           0        3.362700   -0.466650    2.035594
 ---------------------------------------------------------------------

 The electronic state is 1-A.
 Alpha  occ. eigenvalues --  -19.11716 -19.09955 -14.37348 -14.35745 -10.29206
 Alpha  occ. eigenvalues --  -10.28392 -10.24285 -10.22522 -10.18779 -10.18638
 Alpha  occ. eigenvalues --   -1.03906  -1.01955  -0.92979  -0.91812  -0.78349
 Alpha  occ. eigenvalues --   -0.72635  -0.71043  -0.65886  -0.59622  -0.56041
 Alpha  occ. eigenvalues --   -0.53601  -0.50723  -0.46856  -0.45736  -0.45257
 Alpha  occ. eigenvalues --   -0.44084  -0.42570  -0.41302  -0.40258  -0.39444
 Alpha  occ. eigenvalues --   -0.38990  -0.38683  -0.37570  -0.36445  -0.34845
 Alpha  occ. eigenvalues --   -0.26641  -0.26170  -0.24024  -0.23794
 Alpha virt. eigenvalues --    0.01593   0.04077   0.07278   0.09197   0.11088
 Alpha virt. eigenvalues --    0.12790   0.14225   0.14834   0.15431   0.15846
 Alpha virt. eigenvalues --    0.16356   0.18119   0.18194   0.18270   0.19187

 Mulliken atomic charges:
              1
     1  H    0.183442
     2  C   -0.534115
     3  H    0.146927
     4  H    0.182350
     5  C    0.593115
     6  O   -0.518849
     7  N   -0.608731
     8  H    0.340781
     9  C    0.003075
    10  H    0.168022
    11  C   -0.474726
    12  H    0.165852
    13  H    0.138100
    14  H    0.196667
    15  C    0.586224
    16  O   -0.532282
    17  N   -0.590365
    18  H    0.338061
    19  C   -0.314589
    20  H    0.207176
    21  H    0.161361
    22  H    0.162503
 Sum of Mulliken atomic charges =   0.00000

 Dipole moment (field-independent basis, Debye):
    X=              2.3074    Y=              0.3109    Z=              0.7856  Tot=              2.4572
 Quadrupole moment (field-independent basis, Debye-Ang):
   XX=            -59.0792   YY=            -61.4718   ZZ=            -59.3866
   XY=             11.8708   XZ=              6.8667   YZ=             -3.3719

 Normal termination of Gaussian 09 at Fri Feb 10 19:36:49 2017.
