 Gaussian 09, Revision A.02,
 Gaussian 09:  EM64L-G09RevA.02 11-Jun-2009

 ----------------------------------------------------------------------
 # b3lyp/6-31G* Opt=(ModRedundant, maxcycles=1000, calcfc) geom=nocrowd
 ----------------------------------------------------------------------

 ------------------
 Phi Psi fixed scan
 ------------------
 Symbolic Z-matrix:
 Charge =  0 Multiplicity = 1

 SCF Done:  E(RB3LYP) =  -495.815103861     A.U. after   15 cycles

  Exact polarizability:   0.000   0.000   0.000   0.000   0.000   0.000
 Approx polarizability: 119.852 -13.044 109.451 -10.180   7.297 108.620

 SCF Done:  E(RB3LYP) =  -495.824117480     A.U. after   13 cycles
 SCF Done:  E(RB3LYP) =  -495.832929609     A.U. after   13 cycles
 SCF Done:  E(RB3LYP) =  -495.826390707     A.U. after   14 cycles
 SCF Done:  E(RB3LYP) =  -495.835545272     A.U. after   14 cycles
 SCF Done:  E(RB3LYP) =  -495.836170746     A.U. after   12 cycles
 SCF Done:  E(RB3LYP) =  -495.836933473     A.U. after   12 cycles
 SCF Done:  E(RB3LYP) =  -495.837241741     A.U. after   12 cycles
 SCF Done:  E(RB3LYP) =  -495.837230810     A.U. after   12 cycles
 SCF Done:  E(RB3LYP) =  -495.837258022     A.U. after   11 cycles
 SCF Done:  E(RB3LYP) =  -495.837432792     A.U. after   12 cycles
 SCF Done:  E(RB3LYP) =  -495.837491451     A.U. after   12 cycles
 SCF Done:  E(RB3LYP) =  -495.837502375     A.U. after   10 cycles
 SCF Done:  E(RB3LYP) =  -495.837505187     A.U. after   10 cycles
 SCF Done:  E(RB3LYP) =  -495.837506200     A.U. after    8 cycles
 SCF Done:  E(RB3LYP) =  -495.837507294     A.U. after   10 cycles
 SCF Done:  E(RB3LYP) =  -495.837507741     A.U. after   10 cycles
 SCF Done:  E(RB3LYP) =  -495.837507789     A.U. after    8 cycles
 SCF Done:  E(RB3LYP) =  -495.837507885     A.U. after    7 cycles
 SCF Done:  E(RB3LYP) =  -495.837507909     A.U. after    6 cycles
 Optimization completed.
    -- Stationary point found.

                         Standard orientation:
 ---------------------------------------------------------------------
 Center     Atomic      Atomic             Coordinates (Angstroms)
 Number     Number       Type             X           Y           Z
 ---------------------------------------------------------------------
      1          1           0       -3.971492   -1.553268   -0.092896
      2          6           0       -2.921067   -1.615422    0.197499
      3          1           0       -2.456057   -2.471649   -0.303126
      4          1           0       -2.876740   -1.786665    1.279607
      5          6           0       -2.248099   -0.284511   -0.127587
      6          8           0       -2.868979    0.767950   -0.108457
      7          7           0       -0.914328   -0.401138   -0.445723
      8          1           0       -0.536746   -1.335390   -0.362520
      9          6           0        0.103297    0.660045   -0.508523
     10          1           0        0.339690    0.850285   -1.567313
     11          6           0       -0.291565    1.986909    0.149063
     12          1           0       -0.473426    1.835350    1.215337
     13          1           0        0.543638    2.688451    0.038648
     14          1           0       -1.185946    2.406660   -0.306772
     15          6           0        1.359319    0.115159    0.209060
     16          8           0        1.403814   -0.017095    1.424575
     17          7           0        2.375664   -0.254756   -0.626908
     18          1           0        2.283286   -0.054421   -1.612554
     19          6           0        3.650221   -0.753310   -0.137578
     20          1           0        3.538870   -0.936608    0.931919
     21          1           0        3.919851   -1.688207   -0.640919
     22          1           0        4.454409   -0.023347   -0.291550
 ---------------------------------------------------------------------

 The electronic state is 1-A.
 Alpha  occ. eigenvalues --  -19.11834 -19.10403 -14.37507 -14.35979 -10.29164
 Alpha  occ. eigenvalues --  -10.28493 -10.24163 -10.22676 -10.18791 -10.17121
 Alpha  occ. eigenvalues --   -1.03970  -1.02303  -0.93071  -0.91884  -0.77965
 Alpha  occ. eigenvalues --   -0.72579  -0.71414  -0.64475  -0.59365  -0.56308
 Alpha  occ. eigenvalues --   -0.53716  -0.49585  -0.47852  -0.46360  -0.45404
 Alpha  occ. eigenvalues --   -0.43851  -0.42355  -0.40757  -0.39912  -0.39763
 Alpha  occ. eigenvalues --   -0.38639  -0.37801  -0.36899  -0.35723  -0.34905
 Alpha  occ. eigenvalues --   -0.26803  -0.26101  -0.24547  -0.23860
 Alpha virt. eigenvalues --    0.01322   0.03580   0.06164   0.08111   0.11455
 Alpha virt. eigenvalues --    0.13311   0.13820   0.14933   0.15544   0.15810
 Alpha virt. eigenvalues --    0.16683   0.17536   0.18294   0.19330   0.20415

 Mulliken atomic charges:
              1
     1  H    0.185392
     2  C   -0.543491
     3  H    0.146828
     4  H    0.185909
     5  C    0.599574
     6  O   -0.500903
     7  N   -0.604498
     8  H    0.326710
     9  C    0.006134
    10  H    0.128470
    11  C   -0.447982
    12  H    0.180773
    13  H    0.135349
    14  H    0.191826
    15  C    0.560197
    16  O   -0.507739
    17  N   -0.586025
    18  H    0.327920
    19  C   -0.313210
    20  H    0.207061
    21  H    0.158803
    22  H    0.162901
 Sum of Mulliken atomic charges =   0.00000

 Dipole moment (field-independent basis, Debye):
    X=              3.4690    Y=             -2.4680    Z=             -3.0392  Tot=              5.2308
 Quadrupole moment (field-independent basis, Debye-Ang):
   XX=            -59.7883   YY=            -57.2160   ZZ=            -61.5630
   XY=              5.6342   XZ=             -6.8668   YZ=             -0.1877

 Normal termination of Gaussian 09 at Fri Feb 10 19:25:12 2017.
