 Gaussian 09, Revision A.02,
 Gaussian 09:  EM64L-G09RevA.02 11-Jun-2009

 -------------------------------------------
 # HF/6-31G* Opt=(ModRedundant) geom=nocrowd
 -------------------------------------------

 ------------------
 Phi Psi fixed scan
 ------------------
 Symbolic Z-matrix:
 Charge =  0 Multiplicity = 1

 SCF Done:  E(RHF) =  -492.823927358     A.U. after   15 cycles
 SCF Done:  E(RHF) =  -492.841244416     A.U. after   17 cycles
 SCF Done:  E(RHF) =  -492.846286040     A.U. after   13 cycles
 SCF Done:  E(RHF) =  -492.848102470     A.U. after   13 cycles
 SCF Done:  E(RHF) =  -492.848667512     A.U. after   14 cycles
 SCF Done:  E(RHF) =  -492.849790996     A.U. after   13 cycles
 SCF Done:  E(RHF) =  -492.850253966     A.U. after   12 cycles
 SCF Done:  E(RHF) =  -492.850336319     A.U. after   13 cycles
 SCF Done:  E(RHF) =  -492.850442303     A.U. after   12 cycles
 SCF Done:  E(RHF) =  -492.850502312     A.U. after   12 cycles
 SCF Done:  E(RHF) =  -492.850930309     A.U. after   12 cycles
 SCF Done:  E(RHF) =  -492.850964625     A.U. after   11 cycles
 SCF Done:  E(RHF) =  -492.850985392     A.U. after   11 cycles
 SCF Done:  E(RHF) =  -492.850991749     A.U. after   10 cycles
 SCF Done:  E(RHF) =  -492.851020129     A.U. after   11 cycles
 SCF Done:  E(RHF) =  -492.851027527     A.U. after   11 cycles
 SCF Done:  E(RHF) =  -492.851030611     A.U. after   10 cycles
 SCF Done:  E(RHF) =  -492.851031684     A.U. after    9 cycles
 SCF Done:  E(RHF) =  -492.851031895     A.U. after    8 cycles
 SCF Done:  E(RHF) =  -492.851031951     A.U. after    7 cycles
 Optimization completed.
    -- Stationary point found.

                         Standard orientation:
 ---------------------------------------------------------------------
 Center     Atomic      Atomic             Coordinates (Angstroms)
 Number     Number       Type             X           Y           Z
 ---------------------------------------------------------------------
      1          1           0       -3.599954   -1.548572    0.669488
      2          6           0       -3.129470   -1.106044   -0.195959
      3          1           0       -3.814947   -0.387746   -0.636222
      4          1           0       -2.926290   -1.874194   -0.934309
      5          6           0       -1.866465   -0.394568    0.241923
      6          8           0       -1.655857   -0.108284    1.383557
      7          7           0       -0.975451   -0.133583   -0.765184
      8          1           0       -1.330651   -0.277792   -1.684248
      9          6           0        0.070171    0.888635   -0.674255
     10          1           0        0.319662    1.113651   -1.707143
     11          6           0       -0.351775    2.195397   -0.005763
     12          1           0       -0.539184    2.061966    1.047799
     13          1           0        0.436716    2.924596   -0.127098
     14          1           0       -1.252649    2.572917   -0.479745
     15          6           0        1.383455    0.344946   -0.098664
     16          8           0        2.175101    1.080951    0.422715
     17          7           0        1.640329   -0.958099   -0.342138
     18          1           0        0.865420   -1.536157   -0.568984
     19          6           0        2.829977   -1.585311    0.192680
     20          1           0        3.695872   -0.988741   -0.053206
     21          1           0        2.784461   -1.693605    1.271336
     22          1           0        2.938091   -2.564218   -0.256365
 ---------------------------------------------------------------------

 The electronic state is 1-A.
 Alpha  occ. eigenvalues --  -20.53750 -20.51727 -15.59832 -15.57577 -11.35987
 Alpha  occ. eigenvalues --  -11.33793 -11.28489 -11.25081 -11.24359 -11.20953
 Alpha  occ. eigenvalues --   -1.40585  -1.38587  -1.25172  -1.22081  -1.05533
 Alpha  occ. eigenvalues --   -0.99761  -0.95603  -0.87853  -0.80241  -0.77019
 Alpha  occ. eigenvalues --   -0.71930  -0.70178  -0.65848  -0.63766  -0.62610
 Alpha  occ. eigenvalues --   -0.61577  -0.60393  -0.59122  -0.57502  -0.55626
 Alpha  occ. eigenvalues --   -0.54719  -0.53547  -0.52180  -0.51596  -0.50126
 Alpha  occ. eigenvalues --   -0.43848  -0.42478  -0.39011  -0.38402
 Alpha virt. eigenvalues --    0.18191   0.18799   0.21973   0.24991   0.26037
 Alpha virt. eigenvalues --    0.27771   0.29112   0.29705   0.31044   0.31657
 Alpha virt. eigenvalues --    0.32700   0.33699   0.34588   0.35055   0.36799

 Mulliken atomic charges:
              1
     1  H    0.220829
     2  C   -0.594464
     3  H    0.197177
     4  H    0.179665
     5  C    0.743533
     6  O   -0.578931
     7  N   -0.832865
     8  H    0.381586
     9  C   -0.044920
    10  H    0.203540
    11  C   -0.488725
    12  H    0.224464
    13  H    0.196613
    14  H    0.149300
    15  C    0.782529
    16  O   -0.615089
    17  N   -0.789848
    18  H    0.396756
    19  C   -0.275840
    20  H    0.201515
    21  H    0.179257
    22  H    0.163919
 Sum of Mulliken atomic charges =   0.00000

 Dipole moment (field-independent basis, Debye):
    X=             -2.8487    Y=             -2.8989    Z=             -4.7250  Tot=              6.2325
 Quadrupole moment (field-independent basis, Debye-Ang):
   XX=            -60.1766   YY=            -57.6347   ZZ=            -62.3362
   XY=             -4.7503   XZ=              4.3435   YZ=             -1.5500

 Normal termination of Gaussian 09 at Thu Feb  9 20:42:47 2017.
