 Gaussian 09, Revision A.02,
 Gaussian 09:  EM64L-G09RevA.02 11-Jun-2009

 -------------------------------------------
 # HF/6-31G* Opt=(ModRedundant) geom=nocrowd
 -------------------------------------------

 ------------------
 Phi Psi fixed scan
 ------------------
 Symbolic Z-matrix:
 Charge =  0 Multiplicity = 1

 SCF Done:  E(RHF) =  -492.827236463     A.U. after   15 cycles
 SCF Done:  E(RHF) =  -492.841314903     A.U. after   16 cycles
 SCF Done:  E(RHF) =  -492.845522249     A.U. after   13 cycles
 SCF Done:  E(RHF) =  -492.846866976     A.U. after   13 cycles
 SCF Done:  E(RHF) =  -492.847455160     A.U. after   16 cycles
 SCF Done:  E(RHF) =  -492.848160792     A.U. after   16 cycles
 SCF Done:  E(RHF) =  -492.848405098     A.U. after   16 cycles
 SCF Done:  E(RHF) =  -492.848605922     A.U. after   13 cycles
 SCF Done:  E(RHF) =  -492.848691881     A.U. after   10 cycles
 SCF Done:  E(RHF) =  -492.848723988     A.U. after   11 cycles
 SCF Done:  E(RHF) =  -492.848919892     A.U. after   12 cycles
 SCF Done:  E(RHF) =  -492.849019778     A.U. after   13 cycles
 SCF Done:  E(RHF) =  -492.849030309     A.U. after   10 cycles
 SCF Done:  E(RHF) =  -492.849039054     A.U. after   16 cycles
 SCF Done:  E(RHF) =  -492.849049511     A.U. after   10 cycles
 SCF Done:  E(RHF) =  -492.849062618     A.U. after   16 cycles
 SCF Done:  E(RHF) =  -492.849063987     A.U. after   10 cycles
 SCF Done:  E(RHF) =  -492.849064100     A.U. after    9 cycles
 SCF Done:  E(RHF) =  -492.849064133     A.U. after    8 cycles
 SCF Done:  E(RHF) =  -492.849064135     A.U. after    6 cycles
 Optimization completed.
    -- Stationary point found.

                         Standard orientation:
 ---------------------------------------------------------------------
 Center     Atomic      Atomic             Coordinates (Angstroms)
 Number     Number       Type             X           Y           Z
 ---------------------------------------------------------------------
      1          1           0       -4.024282   -0.975842    0.451442
      2          6           0       -3.149266   -1.160199   -0.154135
      3          1           0       -3.428414   -1.190436   -1.201725
      4          1           0       -2.731394   -2.125484    0.115288
      5          6           0       -2.121857   -0.083392    0.126403
      6          8           0       -2.194599    0.624036    1.089908
      7          7           0       -1.141091    0.002511   -0.819442
      8          1           0       -1.095293   -0.776315   -1.437812
      9          6           0        0.123337    0.689967   -0.672787
     10          1           0        0.445423    0.928851   -1.683351
     11          6           0        0.056646    2.013225    0.100128
     12          1           0       -0.082673    1.860682    1.158019
     13          1           0        0.972380    2.573041   -0.062227
     14          1           0       -0.767980    2.609905   -0.265510
     15          6           0        1.177664   -0.275779   -0.108173
     16          8           0        0.883116   -1.347656    0.343788
     17          7           0        2.459490    0.138546   -0.218375
     18          1           0        2.641167    1.074628   -0.496068
     19          6           0        3.551236   -0.631708    0.340415
     20          1           0        3.470767   -1.661377    0.024290
     21          1           0        4.485104   -0.223589   -0.022873
     22          1           0        3.551709   -0.605185    1.424580
 ---------------------------------------------------------------------

 The electronic state is 1-A.
 Alpha  occ. eigenvalues --  -20.52786 -20.51714 -15.58936 -15.57909 -11.34544
 Alpha  occ. eigenvalues --  -11.34280 -11.28514 -11.26086 -11.22412 -11.22346
 Alpha  occ. eigenvalues --   -1.39760  -1.38383  -1.23729  -1.23348  -1.05570
 Alpha  occ. eigenvalues --   -0.98698  -0.95784  -0.88695  -0.79989  -0.76534
 Alpha  occ. eigenvalues --   -0.72301  -0.69625  -0.65642  -0.63348  -0.62452
 Alpha  occ. eigenvalues --   -0.61883  -0.59615  -0.58502  -0.56381  -0.56018
 Alpha  occ. eigenvalues --   -0.55529  -0.53704  -0.53418  -0.51040  -0.50228
 Alpha  occ. eigenvalues --   -0.42877  -0.40837  -0.39418  -0.38422
 Alpha virt. eigenvalues --    0.19253   0.20395   0.21505   0.23223   0.26048
 Alpha virt. eigenvalues --    0.27795   0.29717   0.30553   0.31591   0.32027
 Alpha virt. eigenvalues --    0.32611   0.33391   0.33935   0.34857   0.37280

 Mulliken atomic charges:
              1
     1  H    0.211568
     2  C   -0.597154
     3  H    0.176892
     4  H    0.206611
     5  C    0.756539
     6  O   -0.600650
     7  N   -0.778090
     8  H    0.382029
     9  C   -0.049561
    10  H    0.193028
    11  C   -0.479059
    12  H    0.223695
    13  H    0.139083
    14  H    0.197044
    15  C    0.758650
    16  O   -0.610082
    17  N   -0.796837
    18  H    0.386250
    19  C   -0.271689
    20  H    0.202782
    21  H    0.167791
    22  H    0.181161
 Sum of Mulliken atomic charges =   0.00000

 Dipole moment (field-independent basis, Debye):
    X=              2.7629    Y=              0.9210    Z=             -3.5846  Tot=              4.6185
 Quadrupole moment (field-independent basis, Debye-Ang):
   XX=            -51.8395   YY=            -61.1969   ZZ=            -62.0693
   XY=              8.7766   XZ=              4.6912   YZ=              0.0149

 Normal termination of Gaussian 09 at Thu Feb  9 21:13:32 2017.
