 Gaussian 09, Revision A.02,
 Gaussian 09:  EM64L-G09RevA.02 11-Jun-2009

 -------------------------------------------
 # HF/6-31G* Opt=(ModRedundant) geom=nocrowd
 -------------------------------------------

 ------------------
 Phi Psi fixed scan
 ------------------
 Symbolic Z-matrix:
 Charge =  0 Multiplicity = 1

 SCF Done:  E(RHF) =  -492.827397632     A.U. after   15 cycles
 SCF Done:  E(RHF) =  -492.845982119     A.U. after   14 cycles
 SCF Done:  E(RHF) =  -492.850293781     A.U. after   14 cycles
 SCF Done:  E(RHF) =  -492.851457731     A.U. after   13 cycles
 SCF Done:  E(RHF) =  -492.851793676     A.U. after   13 cycles
 SCF Done:  E(RHF) =  -492.852200489     A.U. after   13 cycles
 SCF Done:  E(RHF) =  -492.852496450     A.U. after   13 cycles
 SCF Done:  E(RHF) =  -492.852481708     A.U. after   13 cycles
 SCF Done:  E(RHF) =  -492.852658455     A.U. after   12 cycles
 SCF Done:  E(RHF) =  -492.852713545     A.U. after   11 cycles
 SCF Done:  E(RHF) =  -492.853129153     A.U. after   13 cycles
 SCF Done:  E(RHF) =  -492.853132664     A.U. after   12 cycles
 SCF Done:  E(RHF) =  -492.853175043     A.U. after   11 cycles
 SCF Done:  E(RHF) =  -492.853209727     A.U. after   11 cycles
 SCF Done:  E(RHF) =  -492.853233998     A.U. after   11 cycles
 SCF Done:  E(RHF) =  -492.853238198     A.U. after   10 cycles
 SCF Done:  E(RHF) =  -492.853242566     A.U. after   10 cycles
 SCF Done:  E(RHF) =  -492.853244142     A.U. after   10 cycles
 SCF Done:  E(RHF) =  -492.853244473     A.U. after    8 cycles
 SCF Done:  E(RHF) =  -492.853244635     A.U. after    8 cycles
 Optimization completed.
    -- Stationary point found.

                         Standard orientation:
 ---------------------------------------------------------------------
 Center     Atomic      Atomic             Coordinates (Angstroms)
 Number     Number       Type             X           Y           Z
 ---------------------------------------------------------------------
      1          1           0       -3.639139   -1.549477    0.205083
      2          6           0       -3.204727   -0.815657   -0.457557
      3          1           0       -3.876814    0.034463   -0.525070
      4          1           0       -3.095949   -1.239001   -1.450079
      5          6           0       -1.879233   -0.359886    0.114925
      6          8           0       -1.591704   -0.528057    1.269159
      7          7           0       -1.035917    0.223400   -0.775192
      8          1           0       -1.371311    0.309975   -1.707164
      9          6           0        0.107888    1.072106   -0.449402
     10          1           0        0.277993    1.668218   -1.336837
     11          6           0       -0.128430    2.042347    0.712865
     12          1           0       -0.253962    1.521188    1.650058
     13          1           0        0.721828    2.706980    0.785803
     14          1           0       -1.018429    2.633187    0.523631
     15          6           0        1.434363    0.329558   -0.262768
     16          8           0        2.457858    0.960657   -0.296045
     17          7           0        1.393566   -1.005904   -0.103333
     18          1           0        0.523062   -1.408905    0.156090
     19          6           0        2.599329   -1.742978    0.210975
     20          1           0        3.378467   -1.475909   -0.487251
     21          1           0        2.954097   -1.535660    1.215259
     22          1           0        2.392251   -2.801273    0.121016
 ---------------------------------------------------------------------

 The electronic state is 1-A.
 Alpha  occ. eigenvalues --  -20.53777 -20.51517 -15.59816 -15.57628 -11.36259
 Alpha  occ. eigenvalues --  -11.33767 -11.28487 -11.24989 -11.24447 -11.21674
 Alpha  occ. eigenvalues --   -1.40600  -1.38448  -1.25168  -1.22190  -1.05830
 Alpha  occ. eigenvalues --   -0.99991  -0.95384  -0.88532  -0.80145  -0.77486
 Alpha  occ. eigenvalues --   -0.72454  -0.70242  -0.65837  -0.63267  -0.62404
 Alpha  occ. eigenvalues --   -0.61919  -0.60317  -0.59302  -0.57635  -0.56011
 Alpha  occ. eigenvalues --   -0.54597  -0.54502  -0.52526  -0.52033  -0.49451
 Alpha  occ. eigenvalues --   -0.43767  -0.42866  -0.39340  -0.37756
 Alpha virt. eigenvalues --    0.18502   0.19309   0.21197   0.25062   0.26042
 Alpha virt. eigenvalues --    0.27966   0.29349   0.29799   0.31158   0.32087
 Alpha virt. eigenvalues --    0.32899   0.34111   0.34559   0.35104   0.36724

 Mulliken atomic charges:
              1
     1  H    0.218263
     2  C   -0.589021
     3  H    0.200952
     4  H    0.180405
     5  C    0.740903
     6  O   -0.608832
     7  N   -0.820511
     8  H    0.387700
     9  C   -0.024774
    10  H    0.210712
    11  C   -0.506679
    12  H    0.216890
    13  H    0.202695
    14  H    0.162509
    15  C    0.763042
    16  O   -0.623803
    17  N   -0.788011
    18  H    0.409216
    19  C   -0.277112
    20  H    0.201053
    21  H    0.177128
    22  H    0.167275
 Sum of Mulliken atomic charges =   0.00000

 Dipole moment (field-independent basis, Debye):
    X=             -3.6319    Y=             -1.2932    Z=             -2.8461  Tot=              4.7920
 Quadrupole moment (field-independent basis, Debye-Ang):
   XX=            -63.0282   YY=            -57.5428   ZZ=            -61.4007
   XY=             -7.1640   XZ=              8.1441   YZ=              0.4310

 Normal termination of Gaussian 09 at Thu Feb  9 21:51:59 2017.
