 Gaussian 09, Revision A.02,
 Gaussian 09:  EM64L-G09RevA.02 11-Jun-2009

 -------------------------------------------
 # HF/6-31G* Opt=(ModRedundant) geom=nocrowd
 -------------------------------------------

 ------------------
 Phi Psi fixed scan
 ------------------
 Symbolic Z-matrix:
 Charge =  0 Multiplicity = 1

 SCF Done:  E(RHF) =  -492.826027586     A.U. after   15 cycles
 SCF Done:  E(RHF) =  -492.843467631     A.U. after   16 cycles
 SCF Done:  E(RHF) =  -492.848249125     A.U. after   13 cycles
 SCF Done:  E(RHF) =  -492.849924018     A.U. after   13 cycles
 SCF Done:  E(RHF) =  -492.850271962     A.U. after   13 cycles
 SCF Done:  E(RHF) =  -492.851095001     A.U. after   13 cycles
 SCF Done:  E(RHF) =  -492.851464894     A.U. after   14 cycles
 SCF Done:  E(RHF) =  -492.851578971     A.U. after   12 cycles
 SCF Done:  E(RHF) =  -492.851618219     A.U. after   11 cycles
 SCF Done:  E(RHF) =  -492.851658309     A.U. after   12 cycles
 SCF Done:  E(RHF) =  -492.851908094     A.U. after   12 cycles
 SCF Done:  E(RHF) =  -492.851993966     A.U. after   12 cycles
 SCF Done:  E(RHF) =  -492.852012459     A.U. after   11 cycles
 SCF Done:  E(RHF) =  -492.852038238     A.U. after   11 cycles
 SCF Done:  E(RHF) =  -492.852053379     A.U. after   11 cycles
 SCF Done:  E(RHF) =  -492.852061387     A.U. after   11 cycles
 SCF Done:  E(RHF) =  -492.852071338     A.U. after   11 cycles
 SCF Done:  E(RHF) =  -492.852072837     A.U. after    9 cycles
 SCF Done:  E(RHF) =  -492.852073136     A.U. after    9 cycles
 SCF Done:  E(RHF) =  -492.852073236     A.U. after    8 cycles
 Optimization completed.
    -- Stationary point found.

                         Standard orientation:
 ---------------------------------------------------------------------
 Center     Atomic      Atomic             Coordinates (Angstroms)
 Number     Number       Type             X           Y           Z
 ---------------------------------------------------------------------
      1          1           0       -3.599748   -1.563665    0.542261
      2          6           0       -3.149106   -1.021721   -0.275976
      3          1           0       -3.838119   -0.248342   -0.602487
      4          1           0       -2.978156   -1.694299   -1.109587
      5          6           0       -1.866171   -0.378779    0.208068
      6          8           0       -1.628940   -0.221711    1.370416
      7          7           0       -0.994812   -0.018913   -0.781958
      8          1           0       -1.347636   -0.093812   -1.709512
      9          6           0        0.084774    0.954423   -0.612772
     10          1           0        0.305768    1.295256   -1.619543
     11          6           0       -0.279030    2.187164    0.215714
     12          1           0       -0.452192    1.935068    1.250322
     13          1           0        0.532653    2.898113    0.159936
     14          1           0       -1.176144    2.646136   -0.187702
     15          6           0        1.409758    0.336474   -0.151889
     16          8           0        2.313446    1.050796    0.191306
     17          7           0        1.529199   -0.999637   -0.256937
     18          1           0        0.699147   -1.528210   -0.383017
     19          6           0        2.723414   -1.675748    0.201256
     20          1           0        3.596824   -1.191820   -0.210397
     21          1           0        2.804495   -1.666076    1.282925
     22          1           0        2.694503   -2.702053   -0.141109
 ---------------------------------------------------------------------

 The electronic state is 1-A.
 Alpha  occ. eigenvalues --  -20.53730 -20.51449 -15.59851 -15.57688 -11.36057
 Alpha  occ. eigenvalues --  -11.33774 -11.28496 -11.25114 -11.24405 -11.21053
 Alpha  occ. eigenvalues --   -1.40584  -1.38417  -1.25208  -1.22149  -1.05582
 Alpha  occ. eigenvalues --   -0.99805  -0.95629  -0.88037  -0.80224  -0.77348
 Alpha  occ. eigenvalues --   -0.72143  -0.70196  -0.65889  -0.63495  -0.62557
 Alpha  occ. eigenvalues --   -0.61722  -0.60329  -0.59181  -0.57548  -0.55644
 Alpha  occ. eigenvalues --   -0.54768  -0.53990  -0.52183  -0.51733  -0.49750
 Alpha  occ. eigenvalues --   -0.43765  -0.42537  -0.38993  -0.38216
 Alpha virt. eigenvalues --    0.18514   0.18826   0.21763   0.24808   0.26037
 Alpha virt. eigenvalues --    0.27958   0.29026   0.29678   0.31176   0.31664
 Alpha virt. eigenvalues --    0.32934   0.33849   0.34757   0.35007   0.36642

 Mulliken atomic charges:
              1
     1  H    0.220017
     2  C   -0.593352
     3  H    0.198959
     4  H    0.178620
     5  C    0.739585
     6  O   -0.583368
     7  N   -0.837169
     8  H    0.383988
     9  C   -0.031797
    10  H    0.205545
    11  C   -0.496186
    12  H    0.221168
    13  H    0.203106
    14  H    0.152526
    15  C    0.780476
    16  O   -0.622705
    17  N   -0.792880
    18  H    0.401292
    19  C   -0.273874
    20  H    0.200940
    21  H    0.181018
    22  H    0.164092
 Sum of Mulliken atomic charges =   0.00000

 Dipole moment (field-independent basis, Debye):
    X=             -3.2174    Y=             -2.5269    Z=             -4.2807  Tot=              5.9213
 Quadrupole moment (field-independent basis, Debye-Ang):
   XX=            -61.6327   YY=            -57.3785   ZZ=            -61.9030
   XY=             -5.7042   XZ=              5.3709   YZ=             -0.8774

 Normal termination of Gaussian 09 at Thu Feb  9 20:40:10 2017.
