 Gaussian 09, Revision A.02,
 Gaussian 09:  EM64L-G09RevA.02 11-Jun-2009

 -------------------------------------------
 # HF/6-31G* Opt=(ModRedundant) geom=nocrowd
 -------------------------------------------

 ------------------
 Phi Psi fixed scan
 ------------------
 Symbolic Z-matrix:
 Charge =  0 Multiplicity = 1

 SCF Done:  E(RHF) =  -492.822100165     A.U. after   15 cycles
 SCF Done:  E(RHF) =  -492.839466232     A.U. after   17 cycles
 SCF Done:  E(RHF) =  -492.844161776     A.U. after   13 cycles
 SCF Done:  E(RHF) =  -492.845572641     A.U. after   13 cycles
 SCF Done:  E(RHF) =  -492.846032875     A.U. after   14 cycles
 SCF Done:  E(RHF) =  -492.847234063     A.U. after   13 cycles
 SCF Done:  E(RHF) =  -492.848024120     A.U. after   14 cycles
 SCF Done:  E(RHF) =  -492.848254448     A.U. after   13 cycles
 SCF Done:  E(RHF) =  -492.848353738     A.U. after   12 cycles
 SCF Done:  E(RHF) =  -492.848423456     A.U. after   12 cycles
 SCF Done:  E(RHF) =  -492.848605227     A.U. after   11 cycles
 SCF Done:  E(RHF) =  -492.848905166     A.U. after   12 cycles
 SCF Done:  E(RHF) =  -492.848948520     A.U. after   12 cycles
 SCF Done:  E(RHF) =  -492.848979202     A.U. after   10 cycles
 SCF Done:  E(RHF) =  -492.848998779     A.U. after   11 cycles
 SCF Done:  E(RHF) =  -492.849015518     A.U. after   11 cycles
 SCF Done:  E(RHF) =  -492.849020409     A.U. after   11 cycles
 SCF Done:  E(RHF) =  -492.849024100     A.U. after   10 cycles
 SCF Done:  E(RHF) =  -492.849024719     A.U. after    8 cycles
 SCF Done:  E(RHF) =  -492.849024750     A.U. after    7 cycles
 Optimization completed.
    -- Stationary point found.

                         Standard orientation:
 ---------------------------------------------------------------------
 Center     Atomic      Atomic             Coordinates (Angstroms)
 Number     Number       Type             X           Y           Z
 ---------------------------------------------------------------------
      1          1           0       -3.611754   -1.529214    0.760432
      2          6           0       -3.113924   -1.182969   -0.133084
      3          1           0       -3.791754   -0.535162   -0.681453
      4          1           0       -2.869678   -2.029004   -0.766365
      5          6           0       -1.878740   -0.402384    0.265180
      6          8           0       -1.710488    0.007355    1.375055
      7          7           0       -0.960615   -0.232538   -0.738828
      8          1           0       -1.298957   -0.462844   -1.646951
      9          6           0        0.062297    0.818517   -0.729425
     10          1           0        0.336338    0.938892   -1.773131
     11          6           0       -0.398891    2.175121   -0.205097
     12          1           0       -0.597844    2.146374    0.853779
     13          1           0        0.374459    2.908626   -0.389614
     14          1           0       -1.299365    2.481499   -0.728774
     15          6           0        1.356051    0.345313   -0.053587
     16          8           0        2.005833    1.074555    0.640126
     17          7           0        1.776611   -0.890385   -0.420311
     18          1           0        1.077879   -1.513654   -0.754408
     19          6           0        2.947227   -1.474578    0.200725
     20          1           0        3.771133   -0.779459    0.140236
     21          1           0        2.780892   -1.717189    1.245421
     22          1           0        3.209808   -2.377810   -0.334917
 ---------------------------------------------------------------------

 The electronic state is 1-A.
 Alpha  occ. eigenvalues --  -20.53640 -20.52091 -15.59770 -15.57597 -11.35855
 Alpha  occ. eigenvalues --  -11.33845 -11.28471 -11.25101 -11.24248 -11.20902
 Alpha  occ. eigenvalues --   -1.40477  -1.38827  -1.25060  -1.22109  -1.05495
 Alpha  occ. eigenvalues --   -0.99681  -0.95579  -0.87718  -0.80223  -0.76782
 Alpha  occ. eigenvalues --   -0.71714  -0.70129  -0.65750  -0.64025  -0.62642
 Alpha  occ. eigenvalues --   -0.61494  -0.60457  -0.59045  -0.57394  -0.55669
 Alpha  occ. eigenvalues --   -0.54676  -0.53029  -0.52266  -0.51429  -0.50562
 Alpha  occ. eigenvalues --   -0.43943  -0.42360  -0.39054  -0.38555
 Alpha virt. eigenvalues --    0.17969   0.18813   0.21969   0.24931   0.26068
 Alpha virt. eigenvalues --    0.27575   0.29046   0.29807   0.31152   0.31628
 Alpha virt. eigenvalues --    0.32459   0.33598   0.34490   0.35188   0.36983

 Mulliken atomic charges:
              1
     1  H    0.221177
     2  C   -0.595282
     3  H    0.195389
     4  H    0.180406
     5  C    0.746556
     6  O   -0.576154
     7  N   -0.826770
     8  H    0.379410
     9  C   -0.057080
    10  H    0.200552
    11  C   -0.482879
    12  H    0.229989
    13  H    0.187395
    14  H    0.148043
    15  C    0.783973
    16  O   -0.604211
    17  N   -0.784560
    18  H    0.388452
    19  C   -0.278598
    20  H    0.202761
    21  H    0.177032
    22  H    0.164399
 Sum of Mulliken atomic charges =   0.00000

 Dipole moment (field-independent basis, Debye):
    X=             -2.3143    Y=             -3.2239    Z=             -5.0916  Tot=              6.4555
 Quadrupole moment (field-independent basis, Debye-Ang):
   XX=            -58.7927   YY=            -57.7583   ZZ=            -62.7995
   XY=             -3.6302   XZ=              3.7130   YZ=             -1.9901

 Normal termination of Gaussian 09 at Thu Feb  9 20:45:18 2017.
