 Gaussian 09, Revision A.02,
 Gaussian 09:  EM64L-G09RevA.02 11-Jun-2009

 -------------------------------------------
 # HF/6-31G* Opt=(ModRedundant) geom=nocrowd
 -------------------------------------------

 ------------------
 Phi Psi fixed scan
 ------------------
 Symbolic Z-matrix:
 Charge =  0 Multiplicity = 1

 SCF Done:  E(RHF) =  -492.824834859     A.U. after   15 cycles
 SCF Done:  E(RHF) =  -492.844875802     A.U. after   16 cycles
 SCF Done:  E(RHF) =  -492.850943104     A.U. after   13 cycles
 SCF Done:  E(RHF) =  -492.851978423     A.U. after   14 cycles
 SCF Done:  E(RHF) =  -492.852263903     A.U. after   13 cycles
 SCF Done:  E(RHF) =  -492.852439792     A.U. after   16 cycles
 SCF Done:  E(RHF) =  -492.852541367     A.U. after   13 cycles
 SCF Done:  E(RHF) =  -492.852663844     A.U. after   11 cycles
 SCF Done:  E(RHF) =  -492.852781594     A.U. after   12 cycles
 SCF Done:  E(RHF) =  -492.852866039     A.U. after   12 cycles
 SCF Done:  E(RHF) =  -492.853339254     A.U. after   13 cycles
 SCF Done:  E(RHF) =  -492.853376165     A.U. after   11 cycles
 SCF Done:  E(RHF) =  -492.853434094     A.U. after   12 cycles
 SCF Done:  E(RHF) =  -492.853450841     A.U. after   12 cycles
 SCF Done:  E(RHF) =  -492.853453920     A.U. after   11 cycles
 SCF Done:  E(RHF) =  -492.853455857     A.U. after   10 cycles
 SCF Done:  E(RHF) =  -492.853459180     A.U. after   10 cycles
 SCF Done:  E(RHF) =  -492.853461513     A.U. after   10 cycles
 SCF Done:  E(RHF) =  -492.853463130     A.U. after   10 cycles
 SCF Done:  E(RHF) =  -492.853463224     A.U. after    9 cycles
 Optimization completed.
    -- Stationary point found.

                         Standard orientation:
 ---------------------------------------------------------------------
 Center     Atomic      Atomic             Coordinates (Angstroms)
 Number     Number       Type             X           Y           Z
 ---------------------------------------------------------------------
      1          1           0       -3.395270   -1.832246   -0.306989
      2          6           0       -3.134881   -0.839307   -0.643678
      3          1           0       -3.921883   -0.156136   -0.339698
      4          1           0       -3.071429   -0.825831   -1.725668
      5          6           0       -1.840214   -0.421797    0.019225
      6          8           0       -1.503366   -0.868669    1.085838
      7          7           0       -1.102648    0.481224   -0.664984
      8          1           0       -1.424666    0.768435   -1.559847
      9          6           0        0.061692    1.192057   -0.138455
     10          1           0        0.174592    2.050285   -0.786215
     11          6           0       -0.084005    1.715173    1.289248
     12          1           0       -0.186164    0.935476    2.025814
     13          1           0        0.786602    2.315291    1.531315
     14          1           0       -0.960098    2.351964    1.349824
     15          6           0        1.317442    0.364401   -0.436175
     16          8           0        1.932949    0.544055   -1.452292
     17          7           0        1.678013   -0.531985    0.506274
     18          1           0        0.975402   -0.800361    1.160442
     19          6           0        2.754491   -1.467580    0.257827
     20          1           0        3.625930   -0.931595   -0.087835
     21          1           0        2.995807   -1.972524    1.183838
     22          1           0        2.489803   -2.208207   -0.490326
 ---------------------------------------------------------------------

 The electronic state is 1-A.
 Alpha  occ. eigenvalues --  -20.53332 -20.51904 -15.59776 -15.57424 -11.36024
 Alpha  occ. eigenvalues --  -11.33721 -11.28282 -11.24883 -11.24076 -11.22275
 Alpha  occ. eigenvalues --   -1.40175  -1.38568  -1.24766  -1.22302  -1.05930
 Alpha  occ. eigenvalues --   -0.99917  -0.94932  -0.89214  -0.80210  -0.76993
 Alpha  occ. eigenvalues --   -0.72123  -0.70218  -0.65667  -0.63806  -0.62687
 Alpha  occ. eigenvalues --   -0.61617  -0.59930  -0.58566  -0.57374  -0.56286
 Alpha  occ. eigenvalues --   -0.54909  -0.54191  -0.52471  -0.51517  -0.51179
 Alpha  occ. eigenvalues --   -0.43562  -0.42544  -0.38827  -0.38022
 Alpha virt. eigenvalues --    0.18455   0.20418   0.21458   0.25147   0.25867
 Alpha virt. eigenvalues --    0.27444   0.29259   0.30191   0.31036   0.32013
 Alpha virt. eigenvalues --    0.32628   0.33799   0.34514   0.35835   0.38505

 Mulliken atomic charges:
              1
     1  H    0.215944
     2  C   -0.583055
     3  H    0.202440
     4  H    0.178283
     5  C    0.760518
     6  O   -0.628221
     7  N   -0.812866
     8  H    0.395011
     9  C   -0.051914
    10  H    0.215692
    11  C   -0.493021
    12  H    0.210098
    13  H    0.175828
    14  H    0.170445
    15  C    0.769548
    16  O   -0.617818
    17  N   -0.787083
    18  H    0.415790
    19  C   -0.277714
    20  H    0.200122
    21  H    0.170321
    22  H    0.171653
 Sum of Mulliken atomic charges =   0.00000

 Dipole moment (field-independent basis, Debye):
    X=             -2.6644    Y=              0.4506    Z=             -0.1179  Tot=              2.7048
 Quadrupole moment (field-independent basis, Debye-Ang):
   XX=            -57.9082   YY=            -57.5151   ZZ=            -64.8762
   XY=             -5.5761   XZ=             12.1292   YZ=              2.2084

 Normal termination of Gaussian 09 at Thu Feb  9 21:36:11 2017.
