 Gaussian 09, Revision A.02,
 Gaussian 09:  EM64L-G09RevA.02 11-Jun-2009

 -------------------------------------------
 # HF/6-31G* Opt=(ModRedundant) geom=nocrowd
 -------------------------------------------

 ------------------
 Phi Psi fixed scan
 ------------------
 Symbolic Z-matrix:
 Charge =  0 Multiplicity = 1

 SCF Done:  E(RHF) =  -492.821320953     A.U. after   15 cycles
 SCF Done:  E(RHF) =  -492.841052515     A.U. after   15 cycles
 SCF Done:  E(RHF) =  -492.846798951     A.U. after   13 cycles
 SCF Done:  E(RHF) =  -492.848960835     A.U. after   14 cycles
 SCF Done:  E(RHF) =  -492.849461049     A.U. after   13 cycles
 SCF Done:  E(RHF) =  -492.849634650     A.U. after   13 cycles
 SCF Done:  E(RHF) =  -492.849942190     A.U. after   11 cycles
 SCF Done:  E(RHF) =  -492.850006833     A.U. after   12 cycles
 SCF Done:  E(RHF) =  -492.850083213     A.U. after   11 cycles
 SCF Done:  E(RHF) =  -492.850122157     A.U. after   12 cycles
 SCF Done:  E(RHF) =  -492.850521004     A.U. after   12 cycles
 SCF Done:  E(RHF) =  -492.850519015     A.U. after   10 cycles
 SCF Done:  E(RHF) =  -492.850609514     A.U. after   11 cycles
 SCF Done:  E(RHF) =  -492.850646399     A.U. after   11 cycles
 SCF Done:  E(RHF) =  -492.850649830     A.U. after   10 cycles
 SCF Done:  E(RHF) =  -492.850651969     A.U. after   11 cycles
 SCF Done:  E(RHF) =  -492.850652961     A.U. after   10 cycles
 SCF Done:  E(RHF) =  -492.850653506     A.U. after    9 cycles
 SCF Done:  E(RHF) =  -492.850653747     A.U. after    9 cycles
 SCF Done:  E(RHF) =  -492.850653764     A.U. after    7 cycles
 Optimization completed.
    -- Stationary point found.

                         Standard orientation:
 ---------------------------------------------------------------------
 Center     Atomic      Atomic             Coordinates (Angstroms)
 Number     Number       Type             X           Y           Z
 ---------------------------------------------------------------------
      1          1           0       -3.917751   -0.829910    0.926628
      2          6           0       -3.155795   -1.089767    0.206600
      3          1           0       -3.586374   -1.126025   -0.787655
      4          1           0       -2.770207   -2.076557    0.445297
      5          6           0       -2.030989   -0.079353    0.296512
      6          8           0       -1.908382    0.650322    1.241063
      7          7           0       -1.194540   -0.082687   -0.776748
      8          1           0       -1.235489   -0.892880   -1.353505
      9          6           0        0.074997    0.616478   -0.854205
     10          1           0        0.284936    0.699740   -1.917273
     11          6           0        0.049891    2.042264   -0.302515
     12          1           0        0.007506    2.074121    0.774919
     13          1           0        0.925878    2.579379   -0.653344
     14          1           0       -0.823234    2.557988   -0.680481
     15          6           0        1.190292   -0.314178   -0.349168
     16          8           0        1.115058   -1.496612   -0.558333
     17          7           0        2.262816    0.252058    0.235510
     18          1           0        2.201816    1.193501    0.542603
     19          6           0        3.350795   -0.559656    0.741443
     20          1           0        3.676479   -1.250428   -0.022245
     21          1           0        4.174628    0.090479    1.004454
     22          1           0        3.055333   -1.129416    1.615429
 ---------------------------------------------------------------------

 The electronic state is 1-A.
 Alpha  occ. eigenvalues --  -20.52401 -20.52155 -15.58934 -15.58040 -11.34639
 Alpha  occ. eigenvalues --  -11.34567 -11.28478 -11.25909 -11.22711 -11.22503
 Alpha  occ. eigenvalues --   -1.39630  -1.38681  -1.23676  -1.23468  -1.05648
 Alpha  occ. eigenvalues --   -0.98984  -0.95596  -0.89252  -0.80161  -0.76454
 Alpha  occ. eigenvalues --   -0.72392  -0.69835  -0.65411  -0.64353  -0.62122
 Alpha  occ. eigenvalues --   -0.61683  -0.59742  -0.58700  -0.56422  -0.55724
 Alpha  occ. eigenvalues --   -0.55612  -0.54617  -0.53136  -0.51293  -0.50299
 Alpha  occ. eigenvalues --   -0.42772  -0.41323  -0.39559  -0.38384
 Alpha virt. eigenvalues --    0.19248   0.20618   0.22017   0.23891   0.25971
 Alpha virt. eigenvalues --    0.27317   0.29326   0.30662   0.31295   0.32188
 Alpha virt. eigenvalues --    0.32893   0.33558   0.34049   0.34444   0.37077

 Mulliken atomic charges:
              1
     1  H    0.212131
     2  C   -0.592173
     3  H    0.182307
     4  H    0.201960
     5  C    0.746899
     6  O   -0.606445
     7  N   -0.780639
     8  H    0.395516
     9  C   -0.045224
    10  H    0.209024
    11  C   -0.517892
    12  H    0.216906
    13  H    0.154295
    14  H    0.197722
    15  C    0.781047
    16  O   -0.631129
    17  N   -0.803577
    18  H    0.399268
    19  C   -0.273713
    20  H    0.202313
    21  H    0.168677
    22  H    0.182727
 Sum of Mulliken atomic charges =   0.00000

 Dipole moment (field-independent basis, Debye):
    X=              1.3638    Y=              1.1649    Z=             -1.5042  Tot=              2.3409
 Quadrupole moment (field-independent basis, Debye-Ang):
   XX=            -52.4188   YY=            -62.4677   ZZ=            -61.9378
   XY=              9.2048   XZ=              7.7845   YZ=             -2.7611

 Normal termination of Gaussian 09 at Thu Feb  9 21:24:20 2017.
