 Gaussian 09, Revision A.02,
 Gaussian 09:  EM64L-G09RevA.02 11-Jun-2009

 -------------------------------------------
 # HF/6-31G* Opt=(ModRedundant) geom=nocrowd
 -------------------------------------------

 ------------------
 Phi Psi fixed scan
 ------------------
 Symbolic Z-matrix:
 Charge =  0 Multiplicity = 1

 SCF Done:  E(RHF) =  -492.821453326     A.U. after   15 cycles
 SCF Done:  E(RHF) =  -492.838531719     A.U. after   14 cycles
 SCF Done:  E(RHF) =  -492.842443011     A.U. after   13 cycles
 SCF Done:  E(RHF) =  -492.842858975     A.U. after   13 cycles
 SCF Done:  E(RHF) =  -492.843021992     A.U. after   13 cycles
 SCF Done:  E(RHF) =  -492.843315458     A.U. after   12 cycles
 SCF Done:  E(RHF) =  -492.843333892     A.U. after   12 cycles
 SCF Done:  E(RHF) =  -492.843373309     A.U. after   12 cycles
 SCF Done:  E(RHF) =  -492.843436670     A.U. after   13 cycles
 SCF Done:  E(RHF) =  -492.843469878     A.U. after   13 cycles
 SCF Done:  E(RHF) =  -492.843778144     A.U. after   11 cycles
 SCF Done:  E(RHF) =  -492.843854090     A.U. after   11 cycles
 SCF Done:  E(RHF) =  -492.843883353     A.U. after   12 cycles
 SCF Done:  E(RHF) =  -492.843872259     A.U. after   12 cycles
 SCF Done:  E(RHF) =  -492.843919576     A.U. after   11 cycles
 SCF Done:  E(RHF) =  -492.843923765     A.U. after   11 cycles
 SCF Done:  E(RHF) =  -492.843925921     A.U. after   10 cycles
 SCF Done:  E(RHF) =  -492.843926654     A.U. after    9 cycles
 SCF Done:  E(RHF) =  -492.843927048     A.U. after    9 cycles
 SCF Done:  E(RHF) =  -492.843927088     A.U. after    8 cycles
 Optimization completed.
    -- Stationary point found.

                         Standard orientation:
 ---------------------------------------------------------------------
 Center     Atomic      Atomic             Coordinates (Angstroms)
 Number     Number       Type             X           Y           Z
 ---------------------------------------------------------------------
      1          1           0       -3.780967   -1.496611    0.428511
      2          6           0       -2.816730   -1.629723   -0.039127
      3          1           0       -2.951489   -1.916620   -1.076532
      4          1           0       -2.290568   -2.431881    0.469899
      5          6           0       -2.027306   -0.341724    0.099207
      6          8           0       -2.335510    0.503537    0.886041
      7          7           0       -0.965180   -0.256126   -0.754255
      8          1           0       -0.773256   -1.073499   -1.287989
      9          6           0        0.106257    0.734693   -0.752347
     10          1           0        0.457592    0.770200   -1.779780
     11          6           0       -0.317840    2.144400   -0.356519
     12          1           0       -0.560708    2.201333    0.690346
     13          1           0        0.502670    2.823259   -0.568442
     14          1           0       -1.178758    2.452608   -0.936448
     15          6           0        1.252222    0.227260    0.134542
     16          8           0        1.282295    0.414536    1.316992
     17          7           0        2.189766   -0.512058   -0.509724
     18          1           0        2.230417   -0.469243   -1.501445
     19          6           0        3.348404   -1.023909    0.192540
     20          1           0        3.032541   -1.511819    1.102499
     21          1           0        3.849300   -1.745442   -0.439657
     22          1           0        4.046805   -0.235568    0.452847
 ---------------------------------------------------------------------

 The electronic state is 1-A.
 Alpha  occ. eigenvalues --  -20.52514 -20.51964 -15.59173 -15.58929 -11.34765
 Alpha  occ. eigenvalues --  -11.34380 -11.28594 -11.26136 -11.23067 -11.20890
 Alpha  occ. eigenvalues --   -1.39578  -1.38713  -1.24420  -1.23117  -1.05422
 Alpha  occ. eigenvalues --   -0.98846  -0.96291  -0.87850  -0.80006  -0.77329
 Alpha  occ. eigenvalues --   -0.72087  -0.69788  -0.65625  -0.64177  -0.62653
 Alpha  occ. eigenvalues --   -0.61701  -0.60026  -0.58837  -0.56388  -0.55778
 Alpha  occ. eigenvalues --   -0.54631  -0.53043  -0.51575  -0.51290  -0.51133
 Alpha  occ. eigenvalues --   -0.44218  -0.40895  -0.39557  -0.37696
 Alpha virt. eigenvalues --    0.18185   0.19784   0.21858   0.23579   0.26090
 Alpha virt. eigenvalues --    0.27872   0.28675   0.30645   0.31148   0.32109
 Alpha virt. eigenvalues --    0.32697   0.33631   0.34268   0.35266   0.37062

 Mulliken atomic charges:
              1
     1  H    0.217049
     2  C   -0.593358
     3  H    0.174298
     4  H    0.196555
     5  C    0.759114
     6  O   -0.583852
     7  N   -0.810528
     8  H    0.377514
     9  C   -0.031186
    10  H    0.171029
    11  C   -0.481732
    12  H    0.244524
    13  H    0.153496
    14  H    0.176086
    15  C    0.770937
    16  O   -0.594177
    17  N   -0.801245
    18  H    0.377602
    19  C   -0.275140
    20  H    0.207406
    21  H    0.166646
    22  H    0.178963
 Sum of Mulliken atomic charges =   0.00000

 Dipole moment (field-independent basis, Debye):
    X=              2.3791    Y=             -3.1418    Z=             -5.6413  Tot=              6.8815
 Quadrupole moment (field-independent basis, Debye-Ang):
   XX=            -57.3454   YY=            -57.0557   ZZ=            -62.9895
   XY=              3.1182   XZ=             -1.0363   YZ=             -1.7558

 Normal termination of Gaussian 09 at Thu Feb  9 20:55:30 2017.
