 Gaussian 09, Revision A.02,
 Gaussian 09:  EM64L-G09RevA.02 11-Jun-2009

 -------------------------------------------
 # HF/6-31G* Opt=(ModRedundant) geom=nocrowd
 -------------------------------------------

 ------------------
 Phi Psi fixed scan
 ------------------
 Symbolic Z-matrix:
 Charge =  0 Multiplicity = 1

 SCF Done:  E(RHF) =  -492.821122728     A.U. after   15 cycles
 SCF Done:  E(RHF) =  -492.838627688     A.U. after   17 cycles
 SCF Done:  E(RHF) =  -492.842870823     A.U. after   13 cycles
 SCF Done:  E(RHF) =  -492.843630251     A.U. after   13 cycles
 SCF Done:  E(RHF) =  -492.843689350     A.U. after   13 cycles
 SCF Done:  E(RHF) =  -492.844287892     A.U. after   13 cycles
 SCF Done:  E(RHF) =  -492.844752549     A.U. after   13 cycles
 SCF Done:  E(RHF) =  -492.844987535     A.U. after   14 cycles
 SCF Done:  E(RHF) =  -492.845422622     A.U. after   13 cycles
 SCF Done:  E(RHF) =  -492.845616627     A.U. after   12 cycles
 SCF Done:  E(RHF) =  -492.846211599     A.U. after   12 cycles
 SCF Done:  E(RHF) =  -492.846327065     A.U. after   12 cycles
 SCF Done:  E(RHF) =  -492.846334521     A.U. after   12 cycles
 SCF Done:  E(RHF) =  -492.846357391     A.U. after   10 cycles
 SCF Done:  E(RHF) =  -492.846375237     A.U. after   11 cycles
 SCF Done:  E(RHF) =  -492.846377662     A.U. after   10 cycles
 SCF Done:  E(RHF) =  -492.846378789     A.U. after    9 cycles
 SCF Done:  E(RHF) =  -492.846380227     A.U. after   10 cycles
 SCF Done:  E(RHF) =  -492.846380563     A.U. after    9 cycles
 SCF Done:  E(RHF) =  -492.846380609     A.U. after    7 cycles
 Optimization completed.
    -- Stationary point found.

                         Standard orientation:
 ---------------------------------------------------------------------
 Center     Atomic      Atomic             Coordinates (Angstroms)
 Number     Number       Type             X           Y           Z
 ---------------------------------------------------------------------
      1          1           0       -3.624198   -1.521470    0.815199
      2          6           0       -3.093465   -1.263852   -0.089232
      3          1           0       -3.762818   -0.709709   -0.740979
      4          1           0       -2.791784   -2.168767   -0.605575
      5          6           0       -1.903401   -0.398394    0.271834
      6          8           0       -1.801462    0.135661    1.335492
      7          7           0       -0.951591   -0.305236   -0.709748
      8          1           0       -1.244159   -0.646547   -1.598237
      9          6           0        0.064677    0.751165   -0.774684
     10          1           0        0.358204    0.781921   -1.818938
     11          6           0       -0.412854    2.142698   -0.373738
     12          1           0       -0.625132    2.200519    0.680682
     13          1           0        0.358926    2.864879   -0.609630
     14          1           0       -1.306604    2.398375   -0.934463
     15          6           0        1.331436    0.335308   -0.012680
     16          8           0        1.812911    1.012129    0.848457
     17          7           0        1.928880   -0.792630   -0.481252
     18          1           0        1.344662   -1.429378   -0.974127
     19          6           0        3.060788   -1.359942    0.223083
     20          1           0        3.804061   -0.593241    0.380997
     21          1           0        2.782810   -1.770602    1.188680
     22          1           0        3.490329   -2.145139   -0.385701
 ---------------------------------------------------------------------

 The electronic state is 1-A.
 Alpha  occ. eigenvalues --  -20.53323 -20.52332 -15.59639 -15.57822 -11.35617
 Alpha  occ. eigenvalues --  -11.33917 -11.28475 -11.25215 -11.24038 -11.20863
 Alpha  occ. eigenvalues --   -1.40205  -1.38999  -1.24869  -1.22266  -1.05457
 Alpha  occ. eigenvalues --   -0.99529  -0.95619  -0.87655  -0.80183  -0.76794
 Alpha  occ. eigenvalues --   -0.71530  -0.70056  -0.65560  -0.64232  -0.62599
 Alpha  occ. eigenvalues --   -0.61480  -0.60440  -0.58990  -0.57189  -0.55729
 Alpha  occ. eigenvalues --   -0.54710  -0.52506  -0.52413  -0.51242  -0.50956
 Alpha  occ. eigenvalues --   -0.43940  -0.42075  -0.38973  -0.38672
 Alpha virt. eigenvalues --    0.17883   0.19106   0.21646   0.24618   0.26069
 Alpha virt. eigenvalues --    0.27273   0.28864   0.30037   0.31331   0.31770
 Alpha virt. eigenvalues --    0.32267   0.33563   0.34523   0.35299   0.37272

 Mulliken atomic charges:
              1
     1  H    0.221059
     2  C   -0.595333
     3  H    0.193551
     4  H    0.180115
     5  C    0.749401
     6  O   -0.574932
     7  N   -0.822355
     8  H    0.377513
     9  C   -0.063212
    10  H    0.195435
    11  C   -0.480960
    12  H    0.237670
    13  H    0.177477
    14  H    0.149395
    15  C    0.787292
    16  O   -0.593515
    17  N   -0.781155
    18  H    0.377506
    19  C   -0.280533
    20  H    0.205186
    21  H    0.175305
    22  H    0.165092
 Sum of Mulliken atomic charges =   0.00000

 Dipole moment (field-independent basis, Debye):
    X=             -1.5657    Y=             -3.5249    Z=             -5.4727  Tot=              6.6953
 Quadrupole moment (field-independent basis, Debye-Ang):
   XX=            -57.7542   YY=            -57.6829   ZZ=            -63.0544
   XY=             -2.4247   XZ=              3.2452   YZ=             -2.0375

 Normal termination of Gaussian 09 at Thu Feb  9 20:48:08 2017.
