 Gaussian 09, Revision A.02,
 Gaussian 09:  EM64L-G09RevA.02 11-Jun-2009

 -------------------------------------------
 # HF/6-31G* Opt=(ModRedundant) geom=nocrowd
 -------------------------------------------

 ------------------
 Phi Psi fixed scan
 ------------------
 Symbolic Z-matrix:
 Charge =  0 Multiplicity = 1

 SCF Done:  E(RHF) =  -492.821242166     A.U. after   15 cycles
 SCF Done:  E(RHF) =  -492.842732607     A.U. after   16 cycles
 SCF Done:  E(RHF) =  -492.848641598     A.U. after   13 cycles
 SCF Done:  E(RHF) =  -492.849664580     A.U. after   13 cycles
 SCF Done:  E(RHF) =  -492.849852962     A.U. after   12 cycles
 SCF Done:  E(RHF) =  -492.850038899     A.U. after   12 cycles
 SCF Done:  E(RHF) =  -492.850142731     A.U. after   12 cycles
 SCF Done:  E(RHF) =  -492.850170858     A.U. after   11 cycles
 SCF Done:  E(RHF) =  -492.850199301     A.U. after   11 cycles
 SCF Done:  E(RHF) =  -492.850223828     A.U. after   10 cycles
 SCF Done:  E(RHF) =  -492.850312116     A.U. after   12 cycles
 SCF Done:  E(RHF) =  -492.850396564     A.U. after   12 cycles
 SCF Done:  E(RHF) =  -492.850659332     A.U. after   12 cycles
 SCF Done:  E(RHF) =  -492.850686525     A.U. after   12 cycles
 SCF Done:  E(RHF) =  -492.850699125     A.U. after   11 cycles
 SCF Done:  E(RHF) =  -492.850715757     A.U. after   11 cycles
 SCF Done:  E(RHF) =  -492.850716045     A.U. after    8 cycles
 SCF Done:  E(RHF) =  -492.850716100     A.U. after    8 cycles
 Optimization completed.
    -- Stationary point found.

                         Standard orientation:
 ---------------------------------------------------------------------
 Center     Atomic      Atomic             Coordinates (Angstroms)
 Number     Number       Type             X           Y           Z
 ---------------------------------------------------------------------
      1          1           0       -3.815073   -0.949267    0.968920
      2          6           0       -3.096327   -1.143338    0.186371
      3          1           0       -3.575495   -1.056337   -0.782044
      4          1           0       -2.731147   -2.160329    0.294568
      5          6           0       -1.938457   -0.178075    0.336896
      6          8           0       -1.724551    0.397612    1.369278
      7          7           0       -1.172210   -0.044592   -0.774430
      8          1           0       -1.308972   -0.707131   -1.503666
      9          6           0        0.055279    0.731889   -0.880965
     10          1           0        0.188293    0.893874   -1.944060
     11          6           0       -0.005254    2.110712   -0.228101
     12          1           0       -0.109617    2.071453    0.844437
     13          1           0        0.889689    2.666555   -0.488126
     14          1           0       -0.860356    2.650293   -0.617606
     15          6           0        1.235880   -0.183175   -0.522410
     16          8           0        1.434509   -1.162348   -1.193503
     17          7           0        2.012694    0.160779    0.520237
     18          1           0        1.686042    0.863158    1.141540
     19          6           0        3.080794   -0.705482    0.973924
     20          1           0        3.687316   -1.004192    0.131923
     21          1           0        3.695850   -0.159721    1.677043
     22          1           0        2.698926   -1.598972    1.455928
 ---------------------------------------------------------------------

 The electronic state is 1-A.
 Alpha  occ. eigenvalues --  -20.52471 -20.52036 -15.58746 -15.58660 -11.35126
 Alpha  occ. eigenvalues --  -11.34273 -11.28365 -11.25654 -11.23202 -11.22355
 Alpha  occ. eigenvalues --   -1.39530  -1.38764  -1.24011  -1.23253  -1.05744
 Alpha  occ. eigenvalues --   -0.99290  -0.95491  -0.89320  -0.80071  -0.77028
 Alpha  occ. eigenvalues --   -0.72226  -0.70046  -0.65469  -0.64367  -0.62089
 Alpha  occ. eigenvalues --   -0.61806  -0.59640  -0.58810  -0.56702  -0.55555
 Alpha  occ. eigenvalues --   -0.55490  -0.54758  -0.52836  -0.51612  -0.50645
 Alpha  occ. eigenvalues --   -0.43109  -0.41564  -0.39328  -0.38119
 Alpha virt. eigenvalues --    0.19262   0.20507   0.22026   0.23521   0.25873
 Alpha virt. eigenvalues --    0.27063   0.29293   0.30358   0.31384   0.31582
 Alpha virt. eigenvalues --    0.32705   0.33661   0.34265   0.35196   0.38092

 Mulliken atomic charges:
              1
     1  H    0.214168
     2  C   -0.589503
     3  H    0.181223
     4  H    0.200605
     5  C    0.751106
     6  O   -0.613346
     7  N   -0.797631
     8  H    0.396888
     9  C   -0.037005
    10  H    0.210308
    11  C   -0.514179
    12  H    0.213230
    13  H    0.168280
    14  H    0.186985
    15  C    0.773328
    16  O   -0.630267
    17  N   -0.793713
    18  H    0.401715
    19  C   -0.275190
    20  H    0.203477
    21  H    0.169761
    22  H    0.179759
 Sum of Mulliken atomic charges =   0.00000

 Dipole moment (field-independent basis, Debye):
    X=             -0.1480    Y=              0.9033    Z=             -0.4524  Tot=              1.0210
 Quadrupole moment (field-independent basis, Debye-Ang):
   XX=            -54.9111   YY=            -60.5564   ZZ=            -63.2537
   XY=              7.3527   XZ=             10.8620   YZ=             -3.9786

 Normal termination of Gaussian 09 at Thu Feb  9 21:30:01 2017.
