 Gaussian 09, Revision A.02,
 Gaussian 09:  EM64L-G09RevA.02 11-Jun-2009

 -------------------------------------------
 # HF/6-31G* Opt=(ModRedundant) geom=nocrowd
 -------------------------------------------

 ------------------
 Phi Psi fixed scan
 ------------------
 Symbolic Z-matrix:
 Charge =  0 Multiplicity = 1

 SCF Done:  E(RHF) =  -492.831733185     A.U. after   15 cycles
 SCF Done:  E(RHF) =  -492.848830711     A.U. after   16 cycles
 SCF Done:  E(RHF) =  -492.853590521     A.U. after   14 cycles
 SCF Done:  E(RHF) =  -492.854647040     A.U. after   13 cycles
 SCF Done:  E(RHF) =  -492.854840142     A.U. after   13 cycles
 SCF Done:  E(RHF) =  -492.855077792     A.U. after   12 cycles
 SCF Done:  E(RHF) =  -492.855120525     A.U. after   12 cycles
 SCF Done:  E(RHF) =  -492.855219805     A.U. after   11 cycles
 SCF Done:  E(RHF) =  -492.855251914     A.U. after   11 cycles
 SCF Done:  E(RHF) =  -492.855263631     A.U. after   11 cycles
 SCF Done:  E(RHF) =  -492.855622591     A.U. after   13 cycles
 SCF Done:  E(RHF) =  -492.855685246     A.U. after   11 cycles
 SCF Done:  E(RHF) =  -492.855676794     A.U. after   11 cycles
 SCF Done:  E(RHF) =  -492.855682853     A.U. after   11 cycles
 SCF Done:  E(RHF) =  -492.855701998     A.U. after   11 cycles
 SCF Done:  E(RHF) =  -492.855705783     A.U. after   10 cycles
 SCF Done:  E(RHF) =  -492.855706161     A.U. after   10 cycles
 SCF Done:  E(RHF) =  -492.855706202     A.U. after    8 cycles
 SCF Done:  E(RHF) =  -492.855706210     A.U. after    7 cycles
 SCF Done:  E(RHF) =  -492.855706220     A.U. after    7 cycles
 Optimization completed.
    -- Stationary point found.

                         Standard orientation:
 ---------------------------------------------------------------------
 Center     Atomic      Atomic             Coordinates (Angstroms)
 Number     Number       Type             X           Y           Z
 ---------------------------------------------------------------------
      1          1           0       -3.503523   -1.683182   -0.303738
      2          6           0       -3.172706   -0.719564   -0.662608
      3          1           0       -3.909847    0.025224   -0.378777
      4          1           0       -3.105173   -0.736304   -1.744339
      5          6           0       -1.852595   -0.379021   -0.005902
      6          8           0       -1.539786   -0.845848    1.060568
      7          7           0       -1.060258    0.468715   -0.698903
      8          1           0       -1.400537    0.788254   -1.576374
      9          6           0        0.103630    1.189383   -0.179318
     10          1           0        0.237218    2.026620   -0.849021
     11          6           0       -0.061493    1.746027    1.236463
     12          1           0       -0.154190    0.970044    1.979656
     13          1           0        0.803804    2.356825    1.470245
     14          1           0       -0.943617    2.375621    1.284081
     15          6           0        1.394078    0.381369   -0.348922
     16          8           0        2.315608    0.828276   -0.980232
     17          7           0        1.426791   -0.811458    0.267277
     18          1           0        0.612306   -1.125387    0.748129
     19          6           0        2.581748   -1.675939    0.173876
     20          1           0        3.471394   -1.166455    0.520762
     21          1           0        2.410899   -2.546220    0.793091
     22          1           0        2.752991   -1.998792   -0.846563
 ---------------------------------------------------------------------

 The electronic state is 1-A.
 Alpha  occ. eigenvalues --  -20.53842 -20.51457 -15.60065 -15.56972 -11.36468
 Alpha  occ. eigenvalues --  -11.33391 -11.28325 -11.24811 -11.24435 -11.22294
 Alpha  occ. eigenvalues --   -1.40613  -1.38143  -1.25135  -1.21903  -1.06067
 Alpha  occ. eigenvalues --   -1.00169  -0.95029  -0.89034  -0.80308  -0.77216
 Alpha  occ. eigenvalues --   -0.72324  -0.70377  -0.65684  -0.63397  -0.62624
 Alpha  occ. eigenvalues --   -0.61615  -0.60118  -0.58861  -0.57681  -0.56715
 Alpha  occ. eigenvalues --   -0.54842  -0.54212  -0.52735  -0.51874  -0.50298
 Alpha  occ. eigenvalues --   -0.43829  -0.42924  -0.38557  -0.37622
 Alpha virt. eigenvalues --    0.18090   0.20347   0.21199   0.25712   0.25971
 Alpha virt. eigenvalues --    0.27684   0.29254   0.30048   0.31014   0.31803
 Alpha virt. eigenvalues --    0.33141   0.34013   0.34606   0.35838   0.38152

 Mulliken atomic charges:
              1
     1  H    0.217390
     2  C   -0.583274
     3  H    0.203356
     4  H    0.179566
     5  C    0.760478
     6  O   -0.631377
     7  N   -0.810533
     8  H    0.391727
     9  C   -0.055177
    10  H    0.218365
    11  C   -0.500821
    12  H    0.214960
    13  H    0.183298
    14  H    0.169078
    15  C    0.770066
    16  O   -0.621729
    17  N   -0.811079
    18  H    0.437263
    19  C   -0.266539
    20  H    0.188130
    21  H    0.168571
    22  H    0.178283
 Sum of Mulliken atomic charges =   0.00000

 Dipole moment (field-independent basis, Debye):
    X=             -3.6009    Y=             -0.0678    Z=             -0.9821  Tot=              3.7330
 Quadrupole moment (field-independent basis, Debye-Ang):
   XX=            -61.7496   YY=            -57.7289   ZZ=            -62.2970
   XY=             -7.6770   XZ=             11.3234   YZ=              2.3504

 Normal termination of Gaussian 09 at Thu Feb  9 21:43:49 2017.
