 Gaussian 09, Revision A.02,
 Gaussian 09:  EM64L-G09RevA.02 11-Jun-2009

 -------------------------------------------
 # HF/6-31G* Opt=(ModRedundant) geom=nocrowd
 -------------------------------------------

 ------------------
 Phi Psi fixed scan
 ------------------
 Symbolic Z-matrix:
 Charge =  0 Multiplicity = 1

 SCF Done:  E(RHF) =  -492.820976935     A.U. after   15 cycles
 SCF Done:  E(RHF) =  -492.838425973     A.U. after   17 cycles
 SCF Done:  E(RHF) =  -492.842515251     A.U. after   13 cycles
 SCF Done:  E(RHF) =  -492.842970517     A.U. after   13 cycles
 SCF Done:  E(RHF) =  -492.842997128     A.U. after   13 cycles
 SCF Done:  E(RHF) =  -492.843327925     A.U. after   12 cycles
 SCF Done:  E(RHF) =  -492.843331109     A.U. after   12 cycles
 SCF Done:  E(RHF) =  -492.843346671     A.U. after   11 cycles
 SCF Done:  E(RHF) =  -492.843357418     A.U. after   12 cycles
 SCF Done:  E(RHF) =  -492.843385702     A.U. after   13 cycles
 SCF Done:  E(RHF) =  -492.844067782     A.U. after   13 cycles
 SCF Done:  E(RHF) =  -492.843915241     A.U. after   13 cycles
 SCF Done:  E(RHF) =  -492.844055198     A.U. after   12 cycles
 SCF Done:  E(RHF) =  -492.844128375     A.U. after   13 cycles
 SCF Done:  E(RHF) =  -492.844130548     A.U. after   10 cycles
 SCF Done:  E(RHF) =  -492.844130373     A.U. after   10 cycles
 SCF Done:  E(RHF) =  -492.844131293     A.U. after   10 cycles
 SCF Done:  E(RHF) =  -492.844131581     A.U. after    9 cycles
 SCF Done:  E(RHF) =  -492.844131828     A.U. after    9 cycles
 SCF Done:  E(RHF) =  -492.844131897     A.U. after    8 cycles
 Optimization completed.
    -- Stationary point found.

                         Standard orientation:
 ---------------------------------------------------------------------
 Center     Atomic      Atomic             Coordinates (Angstroms)
 Number     Number       Type             X           Y           Z
 ---------------------------------------------------------------------
      1          1           0       -3.621478   -1.547629    0.832388
      2          6           0       -3.049388   -1.369345   -0.065916
      3          1           0       -3.707847   -0.951537   -0.821994
      4          1           0       -2.657782   -2.309074   -0.440356
      5          6           0       -1.943108   -0.381392    0.249140
      6          8           0       -1.951160    0.286694    1.239446
      7          7           0       -0.949509   -0.338127   -0.688781
      8          1           0       -1.134985   -0.841517   -1.526202
      9          6           0        0.079414    0.699421   -0.800067
     10          1           0        0.390469    0.667320   -1.839116
     11          6           0       -0.388981    2.116343   -0.488531
     12          1           0       -0.612874    2.234743    0.557830
     13          1           0        0.395198    2.814976   -0.758097
     14          1           0       -1.272235    2.349302   -1.074050
     15          6           0        1.307838    0.311094    0.036609
     16          8           0        1.598575    0.865551    1.055864
     17          7           0        2.079790   -0.664908   -0.510079
     18          1           0        1.672043   -1.227094   -1.221634
     19          6           0        3.173080   -1.245656    0.241672
     20          1           0        3.787907   -0.455544    0.645141
     21          1           0        2.825048   -1.862296    1.064413
     22          1           0        3.772117   -1.851157   -0.426222
 ---------------------------------------------------------------------

 The electronic state is 1-A.
 Alpha  occ. eigenvalues --  -20.52731 -20.52275 -15.59419 -15.58254 -11.35254
 Alpha  occ. eigenvalues --  -11.33981 -11.28534 -11.25470 -11.23703 -11.20812
 Alpha  occ. eigenvalues --   -1.39740  -1.38949  -1.24620  -1.22550  -1.05432
 Alpha  occ. eigenvalues --   -0.99280  -0.95787  -0.87687  -0.80161  -0.77127
 Alpha  occ. eigenvalues --   -0.71494  -0.69986  -0.65305  -0.64376  -0.62394
 Alpha  occ. eigenvalues --   -0.61550  -0.60302  -0.58935  -0.56861  -0.55718
 Alpha  occ. eigenvalues --   -0.54892  -0.52680  -0.51921  -0.51191  -0.51081
 Alpha  occ. eigenvalues --   -0.43806  -0.41568  -0.38880  -0.38443
 Alpha virt. eigenvalues --    0.17850   0.20009   0.21030   0.24188   0.26090
 Alpha virt. eigenvalues --    0.26977   0.28774   0.30329   0.31360   0.32106
 Alpha virt. eigenvalues --    0.32338   0.33549   0.34532   0.35470   0.37400

 Mulliken atomic charges:
              1
     1  H    0.220473
     2  C   -0.594187
     3  H    0.192049
     4  H    0.177845
     5  C    0.754669
     6  O   -0.577009
     7  N   -0.823064
     8  H    0.376744
     9  C   -0.055923
    10  H    0.186678
    11  C   -0.483210
    12  H    0.245765
    13  H    0.167792
    14  H    0.154727
    15  C    0.792169
    16  O   -0.588966
    17  N   -0.786472
    18  H    0.370547
    19  C   -0.279190
    20  H    0.208324
    21  H    0.174770
    22  H    0.165469
 Sum of Mulliken atomic charges =   0.00000

 Dipole moment (field-independent basis, Debye):
    X=             -0.4359    Y=             -3.7824    Z=             -5.8980  Tot=              7.0202
 Quadrupole moment (field-independent basis, Debye-Ang):
   XX=            -57.1702   YY=            -57.4526   ZZ=            -62.9423
   XY=             -0.9967   XZ=              2.4295   YZ=             -1.6853

 Normal termination of Gaussian 09 at Thu Feb  9 20:52:10 2017.
