 Gaussian 09, Revision A.02,
 Gaussian 09:  EM64L-G09RevA.02 11-Jun-2009

 -------------------------------------------
 # HF/6-31G* Opt=(ModRedundant) geom=nocrowd
 -------------------------------------------

 ------------------
 Phi Psi fixed scan
 ------------------
 Symbolic Z-matrix:
 Charge =  0 Multiplicity = 1

 SCF Done:  E(RHF) =  -492.822207394     A.U. after   15 cycles
 SCF Done:  E(RHF) =  -492.843436893     A.U. after   16 cycles
 SCF Done:  E(RHF) =  -492.849434708     A.U. after   16 cycles
 SCF Done:  E(RHF) =  -492.850345212     A.U. after   14 cycles
 SCF Done:  E(RHF) =  -492.850562746     A.U. after   12 cycles
 SCF Done:  E(RHF) =  -492.850682063     A.U. after   13 cycles
 SCF Done:  E(RHF) =  -492.850797459     A.U. after   12 cycles
 SCF Done:  E(RHF) =  -492.850871941     A.U. after   12 cycles
 SCF Done:  E(RHF) =  -492.850905956     A.U. after   12 cycles
 SCF Done:  E(RHF) =  -492.850960917     A.U. after   11 cycles
 SCF Done:  E(RHF) =  -492.851515381     A.U. after   12 cycles
 SCF Done:  E(RHF) =  -492.851518064     A.U. after   11 cycles
 SCF Done:  E(RHF) =  -492.851521066     A.U. after   11 cycles
 SCF Done:  E(RHF) =  -492.851531019     A.U. after   11 cycles
 SCF Done:  E(RHF) =  -492.851554193     A.U. after   13 cycles
 SCF Done:  E(RHF) =  -492.851554210     A.U. after   10 cycles
 SCF Done:  E(RHF) =  -492.851556054     A.U. after   10 cycles
 SCF Done:  E(RHF) =  -492.851556079     A.U. after    8 cycles
 SCF Done:  E(RHF) =  -492.851556153     A.U. after   10 cycles
 SCF Done:  E(RHF) =  -492.851556175     A.U. after    8 cycles
 Optimization completed.
    -- Stationary point found.

                         Standard orientation:
 ---------------------------------------------------------------------
 Center     Atomic      Atomic             Coordinates (Angstroms)
 Number     Number       Type             X           Y           Z
 ---------------------------------------------------------------------
      1          1           0        3.395179   -1.858269   -0.318957
      2          6           0        3.136178   -1.036437    0.332701
      3          1           0        3.944496   -0.312206    0.311107
      4          1           0        3.030144   -1.396816    1.349525
      5          6           0        1.874895   -0.379873   -0.187065
      6          8           0        1.572199   -0.425649   -1.350577
      7          7           0        1.138894    0.268080    0.744964
      8          1           0        1.385244    0.157820    1.700992
      9          6           0       -0.049142    1.071626    0.478111
     10          1           0       -0.161640    1.694053    1.356094
     11          6           0        0.061909    2.009404   -0.721889
     12          1           0        0.179808    1.496383   -1.662306
     13          1           0       -0.823740    2.634233   -0.764134
     14          1           0        0.923529    2.654106   -0.588644
     15          6           0       -1.276335    0.153134    0.552241
     16          8           0       -1.684750   -0.200494    1.626083
     17          7           0       -1.853568   -0.201781   -0.613521
     18          1           0       -1.311061   -0.093010   -1.440406
     19          6           0       -2.922358   -1.178686   -0.640144
     20          1           0       -3.677861   -0.904936    0.080999
     21          1           0       -3.363141   -1.184311   -1.628249
     22          1           0       -2.568704   -2.177010   -0.403895
 ---------------------------------------------------------------------

 The electronic state is 1-A.
 Alpha  occ. eigenvalues --  -20.52797 -20.51972 -15.59321 -15.58040 -11.35552
 Alpha  occ. eigenvalues --  -11.33981 -11.28309 -11.25218 -11.23669 -11.22295
 Alpha  occ. eigenvalues --   -1.39753  -1.38708  -1.24390  -1.22762  -1.05815
 Alpha  occ. eigenvalues --   -0.99613  -0.95165  -0.89288  -0.80047  -0.77170
 Alpha  occ. eigenvalues --   -0.72143  -0.70142  -0.65560  -0.64085  -0.62380
 Alpha  occ. eigenvalues --   -0.61670  -0.59729  -0.58658  -0.57050  -0.55887
 Alpha  occ. eigenvalues --   -0.55132  -0.54485  -0.52571  -0.51680  -0.50863
 Alpha  occ. eigenvalues --   -0.43299  -0.41994  -0.39122  -0.38052
 Alpha virt. eigenvalues --    0.18722   0.20647   0.21686   0.24017   0.25926
 Alpha virt. eigenvalues --    0.27236   0.29291   0.30338   0.30943   0.31921
 Alpha virt. eigenvalues --    0.32600   0.33755   0.34526   0.35732   0.38513

 Mulliken atomic charges:
              1
     1  H    0.214135
     2  C   -0.581816
     3  H    0.201485
     4  H    0.176606
     5  C    0.756728
     6  O   -0.622873
     7  N   -0.808705
     8  H    0.396314
     9  C   -0.042669
    10  H    0.212542
    11  C   -0.501185
    12  H    0.210332
    13  H    0.173792
    14  H    0.176663
    15  C    0.770280
    16  O   -0.622472
    17  N   -0.783917
    18  H    0.404559
    19  C   -0.277909
    20  H    0.202340
    21  H    0.170236
    22  H    0.175534
 Sum of Mulliken atomic charges =   0.00000

 Dipole moment (field-independent basis, Debye):
    X=              1.5908    Y=              0.7754    Z=              0.0153  Tot=              1.7698
 Quadrupole moment (field-independent basis, Debye-Ang):
   XX=            -56.0418   YY=            -57.4366   ZZ=            -65.8697
   XY=              0.2896   XZ=             13.1909   YZ=              0.8680

 Normal termination of Gaussian 09 at Thu Feb  9 21:33:28 2017.
