 Gaussian 09, Revision A.02,
 Gaussian 09:  EM64L-G09RevA.02 11-Jun-2009

 -------------------------------------------
 # HF/6-31G* Opt=(ModRedundant) geom=nocrowd
 -------------------------------------------

 ------------------
 Phi Psi fixed scan
 ------------------
 Symbolic Z-matrix:
 Charge =  0 Multiplicity = 1

 SCF Done:  E(RHF) =  -492.820531484     A.U. after   15 cycles
 SCF Done:  E(RHF) =  -492.842011763     A.U. after   16 cycles
 SCF Done:  E(RHF) =  -492.847871216     A.U. after   13 cycles
 SCF Done:  E(RHF) =  -492.849355868     A.U. after   13 cycles
 SCF Done:  E(RHF) =  -492.849685617     A.U. after   12 cycles
 SCF Done:  E(RHF) =  -492.849903452     A.U. after   13 cycles
 SCF Done:  E(RHF) =  -492.850063822     A.U. after   12 cycles
 SCF Done:  E(RHF) =  -492.850069382     A.U. after   12 cycles
 SCF Done:  E(RHF) =  -492.850150051     A.U. after   11 cycles
 SCF Done:  E(RHF) =  -492.850171429     A.U. after   10 cycles
 SCF Done:  E(RHF) =  -492.850513549     A.U. after   11 cycles
 SCF Done:  E(RHF) =  -492.850608987     A.U. after   11 cycles
 SCF Done:  E(RHF) =  -492.850645846     A.U. after   11 cycles
 SCF Done:  E(RHF) =  -492.850635953     A.U. after   11 cycles
 SCF Done:  E(RHF) =  -492.850614443     A.U. after   11 cycles
 SCF Done:  E(RHF) =  -492.850651379     A.U. after   11 cycles
 SCF Done:  E(RHF) =  -492.850659468     A.U. after   11 cycles
 SCF Done:  E(RHF) =  -492.850660200     A.U. after   10 cycles
 SCF Done:  E(RHF) =  -492.850660421     A.U. after    8 cycles
 SCF Done:  E(RHF) =  -492.850660462     A.U. after    8 cycles
 Optimization completed.
    -- Stationary point found.

                         Standard orientation:
 ---------------------------------------------------------------------
 Center     Atomic      Atomic             Coordinates (Angstroms)
 Number     Number       Type             X           Y           Z
 ---------------------------------------------------------------------
      1          1           0       -3.866650   -0.843814    0.999778
      2          6           0       -3.124913   -1.106370    0.259846
      3          1           0       -3.579845   -1.131993   -0.723731
      4          1           0       -2.744944   -2.098762    0.483936
      5          6           0       -1.987509   -0.108334    0.331739
      6          8           0       -1.820777    0.593304    1.291440
      7          7           0       -1.190085   -0.092793   -0.768274
      8          1           0       -1.271446   -0.869639   -1.384900
      9          6           0        0.062868    0.633167   -0.899653
     10          1           0        0.229373    0.709225   -1.969382
     11          6           0        0.027952    2.061363   -0.359113
     12          1           0       -0.044301    2.104410    0.716266
     13          1           0        0.915712    2.590802   -0.690632
     14          1           0       -0.835103    2.575048   -0.763967
     15          6           0        1.208860   -0.280286   -0.435334
     16          8           0        1.253466   -1.411019   -0.845800
     17          7           0        2.149408    0.238851    0.373415
     18          1           0        1.973794    1.110186    0.814677
     19          6           0        3.230490   -0.579012    0.883451
     20          1           0        3.695296   -1.116572    0.070233
     21          1           0        3.965034    0.066366    1.346508
     22          1           0        2.879818   -1.299106    1.614490
 ---------------------------------------------------------------------

 The electronic state is 1-A.
 Alpha  occ. eigenvalues --  -20.52284 -20.52180 -15.58889 -15.58341 -11.34850
 Alpha  occ. eigenvalues --  -11.34451 -11.28427 -11.25831 -11.22923 -11.22425
 Alpha  occ. eigenvalues --   -1.39526  -1.38737  -1.23776  -1.23455  -1.05691
 Alpha  occ. eigenvalues --   -0.99115  -0.95583  -0.89303  -0.80156  -0.76714
 Alpha  occ. eigenvalues --   -0.72314  -0.69944  -0.65391  -0.64453  -0.62063
 Alpha  occ. eigenvalues --   -0.61762  -0.59666  -0.58775  -0.56522  -0.55682
 Alpha  occ. eigenvalues --   -0.55512  -0.54755  -0.52998  -0.51451  -0.50452
 Alpha  occ. eigenvalues --   -0.42909  -0.41414  -0.39460  -0.38242
 Alpha virt. eigenvalues --    0.19307   0.20527   0.22103   0.23675   0.25894
 Alpha virt. eigenvalues --    0.27160   0.29348   0.30568   0.31412   0.31766
 Alpha virt. eigenvalues --    0.32650   0.33787   0.34267   0.34529   0.37622

 Mulliken atomic charges:
              1
     1  H    0.212956
     2  C   -0.590758
     3  H    0.182044
     4  H    0.200991
     5  C    0.749023
     6  O   -0.609213
     7  N   -0.788552
     8  H    0.396808
     9  C   -0.040557
    10  H    0.209328
    11  C   -0.519412
    12  H    0.215541
    13  H    0.161743
    14  H    0.193185
    15  C    0.779577
    16  O   -0.632436
    17  N   -0.801351
    18  H    0.400907
    19  C   -0.274136
    20  H    0.202995
    21  H    0.169193
    22  H    0.182124
 Sum of Mulliken atomic charges =   0.00000

 Dipole moment (field-independent basis, Debye):
    X=              0.7257    Y=              1.0839    Z=             -0.9570  Tot=              1.6178
 Quadrupole moment (field-independent basis, Debye-Ang):
   XX=            -53.4170   YY=            -62.0392   ZZ=            -62.2379
   XY=              8.8906   XZ=              8.9826   YZ=             -3.6335

 Normal termination of Gaussian 09 at Thu Feb  9 21:27:47 2017.
