 Gaussian 09, Revision A.02,
 Gaussian 09:  EM64L-G09RevA.02 11-Jun-2009

 -------------------------------------------
 # HF/6-31G* Opt=(ModRedundant) geom=nocrowd
 -------------------------------------------

 ------------------
 Phi Psi fixed scan
 ------------------
 Symbolic Z-matrix:
 Charge =  0 Multiplicity = 1

 SCF Done:  E(RHF) =  -492.824187194     A.U. after   15 cycles
 SCF Done:  E(RHF) =  -492.840300294     A.U. after   15 cycles
 SCF Done:  E(RHF) =  -492.845731579     A.U. after   13 cycles
 SCF Done:  E(RHF) =  -492.848189678     A.U. after   13 cycles
 SCF Done:  E(RHF) =  -492.848702088     A.U. after   12 cycles
 SCF Done:  E(RHF) =  -492.849302234     A.U. after   13 cycles
 SCF Done:  E(RHF) =  -492.849620306     A.U. after   12 cycles
 SCF Done:  E(RHF) =  -492.849793425     A.U. after   13 cycles
 SCF Done:  E(RHF) =  -492.849807432     A.U. after   12 cycles
 SCF Done:  E(RHF) =  -492.849824294     A.U. after   11 cycles
 SCF Done:  E(RHF) =  -492.850231791     A.U. after   12 cycles
 SCF Done:  E(RHF) =  -492.850293276     A.U. after   11 cycles
 SCF Done:  E(RHF) =  -492.850335876     A.U. after   13 cycles
 SCF Done:  E(RHF) =  -492.850335379     A.U. after   12 cycles
 SCF Done:  E(RHF) =  -492.850360803     A.U. after   12 cycles
 SCF Done:  E(RHF) =  -492.850365635     A.U. after   10 cycles
 SCF Done:  E(RHF) =  -492.850365993     A.U. after    8 cycles
 SCF Done:  E(RHF) =  -492.850366108     A.U. after    8 cycles
 SCF Done:  E(RHF) =  -492.850366229     A.U. after    8 cycles
 SCF Done:  E(RHF) =  -492.850366261     A.U. after    8 cycles
 Optimization completed.
    -- Stationary point found.

                         Standard orientation:
 ---------------------------------------------------------------------
 Center     Atomic      Atomic             Coordinates (Angstroms)
 Number     Number       Type             X           Y           Z
 ---------------------------------------------------------------------
      1          1           0       -3.965377   -0.856268    0.796491
      2          6           0       -3.173717   -1.093970    0.101314
      3          1           0       -3.566946   -1.120192   -0.908744
      4          1           0       -2.781524   -2.078479    0.338418
      5          6           0       -2.067797   -0.069697    0.247171
      6          8           0       -1.997765    0.657067    1.198491
      7          7           0       -1.185788   -0.054638   -0.791139
      8          1           0       -1.193953   -0.868686   -1.363945
      9          6           0        0.090375    0.631574   -0.792018
     10          1           0        0.344821    0.755888   -1.842109
     11          6           0        0.060855    2.035229   -0.181203
     12          1           0        0.029706    2.019512    0.896801
     13          1           0        0.929791    2.594841   -0.514453
     14          1           0       -0.816723    2.562321   -0.530380
     15          6           0        1.179618   -0.318270   -0.265355
     16          8           0        1.007426   -1.507899   -0.276761
     17          7           0        2.354643    0.238371    0.093595
     18          1           0        2.394339    1.216243    0.256423
     19          6           0        3.441871   -0.577407    0.595021
     20          1           0        3.629284   -1.395035   -0.085369
     21          1           0        4.330913    0.035415    0.663425
     22          1           0        3.219159   -0.989792    1.572838
 ---------------------------------------------------------------------

 The electronic state is 1-A.
 Alpha  occ. eigenvalues --  -20.52628 -20.52026 -15.58888 -15.57868 -11.34617
 Alpha  occ. eigenvalues --  -11.34474 -11.28510 -11.25947 -11.22580 -11.22541
 Alpha  occ. eigenvalues --   -1.39746  -1.38601  -1.23644  -1.23408  -1.05613
 Alpha  occ. eigenvalues --   -0.98870  -0.95600  -0.89154  -0.80106  -0.76327
 Alpha  occ. eigenvalues --   -0.72429  -0.69735  -0.65493  -0.64087  -0.62203
 Alpha  occ. eigenvalues --   -0.61667  -0.59789  -0.58616  -0.56386  -0.55854
 Alpha  occ. eigenvalues --   -0.55585  -0.54383  -0.53261  -0.51166  -0.50211
 Alpha  occ. eigenvalues --   -0.42715  -0.41207  -0.39595  -0.38490
 Alpha virt. eigenvalues --    0.19214   0.20763   0.21690   0.23914   0.26038
 Alpha virt. eigenvalues --    0.27482   0.29354   0.30747   0.31192   0.32305
 Alpha virt. eigenvalues --    0.32950   0.33431   0.34113   0.34687   0.36574

 Mulliken atomic charges:
              1
     1  H    0.211572
     2  C   -0.593761
     3  H    0.181468
     4  H    0.203620
     5  C    0.746783
     6  O   -0.604561
     7  N   -0.775391
     8  H    0.392251
     9  C   -0.048102
    10  H    0.207547
    11  C   -0.508464
    12  H    0.218140
    13  H    0.146220
    14  H    0.200447
    15  C    0.775756
    16  O   -0.626678
    17  N   -0.801677
    18  H    0.395791
    19  C   -0.273095
    20  H    0.201558
    21  H    0.168118
    22  H    0.182459
 Sum of Mulliken atomic charges =   0.00000

 Dipole moment (field-independent basis, Debye):
    X=              1.8830    Y=              1.1851    Z=             -2.1122  Tot=              3.0678
 Quadrupole moment (field-independent basis, Debye-Ang):
   XX=            -51.8564   YY=            -62.3128   ZZ=            -61.9336
   XY=              9.1774   XZ=              6.8499   YZ=             -1.7442

 Normal termination of Gaussian 09 at Thu Feb  9 21:21:20 2017.
