 Gaussian 09, Revision A.02,
 Gaussian 09:  EM64L-G09RevA.02 11-Jun-2009

 -------------------------------------------
 # HF/6-31G* Opt=(ModRedundant) geom=nocrowd
 -------------------------------------------

 ------------------
 Phi Psi fixed scan
 ------------------
 Symbolic Z-matrix:
 Charge =  0 Multiplicity = 1

 SCF Done:  E(RHF) =  -492.829170200     A.U. after   15 cycles
 SCF Done:  E(RHF) =  -492.847190919     A.U. after   16 cycles
 SCF Done:  E(RHF) =  -492.852900954     A.U. after   13 cycles
 SCF Done:  E(RHF) =  -492.853894412     A.U. after   13 cycles
 SCF Done:  E(RHF) =  -492.853992427     A.U. after   13 cycles
 SCF Done:  E(RHF) =  -492.854252442     A.U. after   12 cycles
 SCF Done:  E(RHF) =  -492.854321914     A.U. after   12 cycles
 SCF Done:  E(RHF) =  -492.854450273     A.U. after   11 cycles
 SCF Done:  E(RHF) =  -492.854527029     A.U. after   11 cycles
 SCF Done:  E(RHF) =  -492.854584168     A.U. after   12 cycles
 SCF Done:  E(RHF) =  -492.854981490     A.U. after   11 cycles
 SCF Done:  E(RHF) =  -492.855087146     A.U. after   12 cycles
 SCF Done:  E(RHF) =  -492.855101113     A.U. after   12 cycles
 SCF Done:  E(RHF) =  -492.855124766     A.U. after   12 cycles
 SCF Done:  E(RHF) =  -492.855126759     A.U. after   10 cycles
 SCF Done:  E(RHF) =  -492.855127334     A.U. after    9 cycles
 SCF Done:  E(RHF) =  -492.855127769     A.U. after    9 cycles
 SCF Done:  E(RHF) =  -492.855128381     A.U. after   10 cycles
 SCF Done:  E(RHF) =  -492.855129095     A.U. after   10 cycles
 SCF Done:  E(RHF) =  -492.855129359     A.U. after    9 cycles
 Optimization completed.
    -- Stationary point found.

                         Standard orientation:
 ---------------------------------------------------------------------
 Center     Atomic      Atomic             Coordinates (Angstroms)
 Number     Number       Type             X           Y           Z
 ---------------------------------------------------------------------
      1          1           0       -3.435328   -1.753969   -0.371690
      2          6           0       -3.143345   -0.762538   -0.685946
      3          1           0       -3.908687   -0.061640   -0.367249
      4          1           0       -3.077875   -0.726774   -1.767294
      5          6           0       -1.836843   -0.400729   -0.013761
      6          8           0       -1.512378   -0.889716    1.038930
      7          7           0       -1.072311    0.497103   -0.674353
      8          1           0       -1.409593    0.833661   -1.546407
      9          6           0        0.086516    1.204038   -0.125244
     10          1           0        0.209136    2.069863   -0.760074
     11          6           0       -0.076479    1.700742    1.311136
     12          1           0       -0.169007    0.901110    2.027827
     13          1           0        0.787149    2.304502    1.569133
     14          1           0       -0.959409    2.327115    1.381802
     15          6           0        1.361727    0.392592   -0.378012
     16          8           0        2.152689    0.740144   -1.213943
     17          7           0        1.530679   -0.690603    0.404686
     18          1           0        0.744846   -1.006724    0.931083
     19          6           0        2.630782   -1.604085    0.186977
     20          1           0        3.557775   -1.052588    0.126072
     21          1           0        2.682839   -2.289199    1.022737
     22          1           0        2.512942   -2.174401   -0.729079
 ---------------------------------------------------------------------

 The electronic state is 1-A.
 Alpha  occ. eigenvalues --  -20.53699 -20.51700 -15.60024 -15.57066 -11.36348
 Alpha  occ. eigenvalues --  -11.33525 -11.28300 -11.24775 -11.24326 -11.22284
 Alpha  occ. eigenvalues --   -1.40486  -1.38340  -1.25024  -1.22026  -1.06029
 Alpha  occ. eigenvalues --   -1.00099  -0.94921  -0.89136  -0.80304  -0.77024
 Alpha  occ. eigenvalues --   -0.72213  -0.70329  -0.65705  -0.63552  -0.62775
 Alpha  occ. eigenvalues --   -0.61594  -0.60079  -0.58640  -0.57587  -0.56584
 Alpha  occ. eigenvalues --   -0.54836  -0.54116  -0.52624  -0.51588  -0.50962
 Alpha  occ. eigenvalues --   -0.43770  -0.42830  -0.38572  -0.37873
 Alpha virt. eigenvalues --    0.18215   0.20388   0.21258   0.25739   0.25821
 Alpha virt. eigenvalues --    0.27610   0.29342   0.30223   0.31089   0.31827
 Alpha virt. eigenvalues --    0.32948   0.33860   0.34524   0.35813   0.38221

 Mulliken atomic charges:
              1
     1  H    0.216963
     2  C   -0.583171
     3  H    0.203263
     4  H    0.179148
     5  C    0.761805
     6  O   -0.630748
     7  N   -0.813270
     8  H    0.393413
     9  C   -0.056678
    10  H    0.218133
    11  C   -0.495187
    12  H    0.213150
    13  H    0.178340
    14  H    0.168841
    15  C    0.770464
    16  O   -0.618657
    17  N   -0.800133
    18  H    0.429464
    19  C   -0.273529
    20  H    0.197907
    21  H    0.169873
    22  H    0.170611
 Sum of Mulliken atomic charges =   0.00000

 Dipole moment (field-independent basis, Debye):
    X=             -3.2674    Y=              0.1830    Z=             -0.5502  Tot=              3.3184
 Quadrupole moment (field-independent basis, Debye-Ang):
   XX=            -60.0153   YY=            -57.6792   ZZ=            -63.5338
   XY=             -6.9262   XZ=             11.7321   YZ=              2.6150

 Normal termination of Gaussian 09 at Thu Feb  9 21:38:58 2017.
