 Gaussian 09, Revision A.02,
 Gaussian 09:  EM64L-G09RevA.02 11-Jun-2009

 -------------------------------------------
 # HF/6-31G* Opt=(ModRedundant) geom=nocrowd
 -------------------------------------------

 ------------------
 Phi Psi fixed scan
 ------------------
 Symbolic Z-matrix:
 Charge =  0 Multiplicity = 1

 SCF Done:  E(RHF) =  -492.830704141     A.U. after   15 cycles
 SCF Done:  E(RHF) =  -492.848404800     A.U. after   16 cycles
 SCF Done:  E(RHF) =  -492.852875722     A.U. after   13 cycles
 SCF Done:  E(RHF) =  -492.854160955     A.U. after   13 cycles
 SCF Done:  E(RHF) =  -492.854446472     A.U. after   13 cycles
 SCF Done:  E(RHF) =  -492.854751127     A.U. after   12 cycles
 SCF Done:  E(RHF) =  -492.854761031     A.U. after   13 cycles
 SCF Done:  E(RHF) =  -492.854917849     A.U. after   12 cycles
 SCF Done:  E(RHF) =  -492.854963739     A.U. after   11 cycles
 SCF Done:  E(RHF) =  -492.855013337     A.U. after   11 cycles
 SCF Done:  E(RHF) =  -492.855328582     A.U. after   12 cycles
 SCF Done:  E(RHF) =  -492.855367906     A.U. after   12 cycles
 SCF Done:  E(RHF) =  -492.855392690     A.U. after   12 cycles
 SCF Done:  E(RHF) =  -492.855419108     A.U. after   11 cycles
 SCF Done:  E(RHF) =  -492.855438562     A.U. after   11 cycles
 SCF Done:  E(RHF) =  -492.855452455     A.U. after   10 cycles
 SCF Done:  E(RHF) =  -492.855482318     A.U. after   12 cycles
 SCF Done:  E(RHF) =  -492.855487638     A.U. after   10 cycles
 SCF Done:  E(RHF) =  -492.855489505     A.U. after   10 cycles
 SCF Done:  E(RHF) =  -492.855489601     A.U. after    7 cycles
 Optimization completed.
    -- Stationary point found.

                         Standard orientation:
 ---------------------------------------------------------------------
 Center     Atomic      Atomic             Coordinates (Angstroms)
 Number     Number       Type             X           Y           Z
 ---------------------------------------------------------------------
      1          1           0       -3.569013   -1.622438   -0.165293
      2          6           0       -3.199854   -0.708114   -0.606111
      3          1           0       -3.907288    0.087888   -0.394749
      4          1           0       -3.130241   -0.823480   -1.681791
      5          6           0       -1.867328   -0.363380    0.022944
      6          8           0       -1.557480   -0.773646    1.112881
      7          7           0       -1.055799    0.416814   -0.725949
      8          1           0       -1.396403    0.686439   -1.620004
      9          6           0        0.112580    1.161736   -0.257250
     10          1           0        0.254771    1.951067   -0.981534
     11          6           0       -0.052453    1.818198    1.116872
     12          1           0       -0.146156    1.091402    1.909049
     13          1           0        0.814124    2.441019    1.306705
     14          1           0       -0.934845    2.449072    1.121685
     15          6           0        1.415379    0.360710   -0.334140
     16          8           0        2.414326    0.882239   -0.755610
     17          7           0        1.367666   -0.907115    0.108811
     18          1           0        0.544853   -1.211235    0.581736
     19          6           0        2.563103   -1.717059    0.187152
     20          1           0        3.088248   -1.694134   -0.757236
     21          1           0        3.239330   -1.367761    0.960392
     22          1           0        2.276216   -2.737017    0.406039
 ---------------------------------------------------------------------

 The electronic state is 1-A.
 Alpha  occ. eigenvalues --  -20.53864 -20.51463 -15.59992 -15.57064 -11.36459
 Alpha  occ. eigenvalues --  -11.33476 -11.28380 -11.24808 -11.24461 -11.22246
 Alpha  occ. eigenvalues --   -1.40639  -1.38203  -1.25173  -1.21929  -1.06058
 Alpha  occ. eigenvalues --   -1.00164  -0.95109  -0.88909  -0.80243  -0.77268
 Alpha  occ. eigenvalues --   -0.72431  -0.70369  -0.65686  -0.63346  -0.62462
 Alpha  occ. eigenvalues --   -0.61678  -0.60141  -0.59161  -0.57703  -0.56596
 Alpha  occ. eigenvalues --   -0.54773  -0.54304  -0.52779  -0.52032  -0.49838
 Alpha  occ. eigenvalues --   -0.43825  -0.42977  -0.38939  -0.37460
 Alpha virt. eigenvalues --    0.18078   0.20158   0.21101   0.25626   0.26102
 Alpha virt. eigenvalues --    0.27736   0.29311   0.30312   0.30936   0.32139
 Alpha virt. eigenvalues --    0.32956   0.34134   0.34590   0.35577   0.38487

 Mulliken atomic charges:
              1
     1  H    0.217663
     2  C   -0.583991
     3  H    0.202752
     4  H    0.180180
     5  C    0.756139
     6  O   -0.628689
     7  N   -0.807605
     8  H    0.390393
     9  C   -0.047936
    10  H    0.216372
    11  C   -0.505301
    12  H    0.215139
    13  H    0.190167
    14  H    0.169170
    15  C    0.765379
    16  O   -0.622673
    17  N   -0.806475
    18  H    0.431689
    19  C   -0.270412
    20  H    0.194636
    21  H    0.175046
    22  H    0.168358
 Sum of Mulliken atomic charges =   0.00000

 Dipole moment (field-independent basis, Debye):
    X=             -3.7227    Y=             -0.2919    Z=             -1.4821  Tot=              4.0175
 Quadrupole moment (field-independent basis, Debye-Ang):
   XX=            -62.6555   YY=            -57.8708   ZZ=            -61.4792
   XY=             -7.9361   XZ=             10.4073   YZ=              1.8093

 Normal termination of Gaussian 09 at Thu Feb  9 21:46:42 2017.
