 Gaussian 09, Revision A.02,
 Gaussian 09:  EM64L-G09RevA.02 11-Jun-2009

 -------------------------------------------
 # HF/6-31G* Opt=(ModRedundant) geom=nocrowd
 -------------------------------------------

 ------------------
 Phi Psi fixed scan
 ------------------
 Symbolic Z-matrix:
 Charge =  0 Multiplicity = 1

 SCF Done:  E(RHF) =  -492.826611428     A.U. after   15 cycles
 SCF Done:  E(RHF) =  -492.840604353     A.U. after   16 cycles
 SCF Done:  E(RHF) =  -492.845299925     A.U. after   13 cycles
 SCF Done:  E(RHF) =  -492.847380891     A.U. after   13 cycles
 SCF Done:  E(RHF) =  -492.847800595     A.U. after   13 cycles
 SCF Done:  E(RHF) =  -492.848755360     A.U. after   13 cycles
 SCF Done:  E(RHF) =  -492.849035330     A.U. after   13 cycles
 SCF Done:  E(RHF) =  -492.849146838     A.U. after   13 cycles
 SCF Done:  E(RHF) =  -492.849276110     A.U. after   12 cycles
 SCF Done:  E(RHF) =  -492.849306792     A.U. after   11 cycles
 SCF Done:  E(RHF) =  -492.849595509     A.U. after   12 cycles
 SCF Done:  E(RHF) =  -492.849692808     A.U. after   13 cycles
 SCF Done:  E(RHF) =  -492.849644317     A.U. after   13 cycles
 SCF Done:  E(RHF) =  -492.849602574     A.U. after   12 cycles
 SCF Done:  E(RHF) =  -492.849694627     A.U. after   12 cycles
 SCF Done:  E(RHF) =  -492.849753189     A.U. after   12 cycles
 SCF Done:  E(RHF) =  -492.849766844     A.U. after   11 cycles
 SCF Done:  E(RHF) =  -492.849767640     A.U. after    9 cycles
 SCF Done:  E(RHF) =  -492.849768929     A.U. after    9 cycles
 SCF Done:  E(RHF) =  -492.849769317     A.U. after   10 cycles
 Optimization completed.
    -- Stationary point found.

                         Standard orientation:
 ---------------------------------------------------------------------
 Center     Atomic      Atomic             Coordinates (Angstroms)
 Number     Number       Type             X           Y           Z
 ---------------------------------------------------------------------
      1          1           0       -4.002505   -0.908809    0.628194
      2          6           0       -3.171068   -1.118162   -0.028559
      3          1           0       -3.512096   -1.138327   -1.057725
      4          1           0       -2.767368   -2.096305    0.215117
      5          6           0       -2.097875   -0.072016    0.188443
      6          8           0       -2.094396    0.641997    1.150953
      7          7           0       -1.166239   -0.021159   -0.806370
      8          1           0       -1.146307   -0.821590   -1.397816
      9          6           0        0.107528    0.661520   -0.728579
     10          1           0        0.399759    0.844667   -1.760024
     11          6           0        0.062839    2.027212   -0.033459
     12          1           0       -0.000365    1.942265    1.039509
     13          1           0        0.945094    2.601844   -0.298745
     14          1           0       -0.800315    2.580880   -0.376608
     15          6           0        1.176033   -0.303210   -0.186145
     16          8           0        0.926858   -1.459201    0.023365
     17          7           0        2.422389    0.201229   -0.059264
     18          1           0        2.552425    1.184200   -0.099833
     19          6           0        3.506990   -0.607442    0.458530
     20          1           0        3.558527   -1.541106   -0.082220
     21          1           0        4.435505   -0.069208    0.321454
     22          1           0        3.378214   -0.828772    1.512201
 ---------------------------------------------------------------------

 The electronic state is 1-A.
 Alpha  occ. eigenvalues --  -20.52766 -20.51868 -15.58862 -15.57826 -11.34599
 Alpha  occ. eigenvalues --  -11.34346 -11.28519 -11.26004 -11.22576 -11.22407
 Alpha  occ. eigenvalues --   -1.39793  -1.38489  -1.23645  -1.23366  -1.05581
 Alpha  occ. eigenvalues --   -0.98764  -0.95661  -0.88965  -0.80044  -0.76366
 Alpha  occ. eigenvalues --   -0.72395  -0.69659  -0.65575  -0.63710  -0.62294
 Alpha  occ. eigenvalues --   -0.61771  -0.59730  -0.58545  -0.56365  -0.56000
 Alpha  occ. eigenvalues --   -0.55535  -0.54044  -0.53374  -0.51084  -0.50198
 Alpha  occ. eigenvalues --   -0.42737  -0.41034  -0.39517  -0.38511
 Alpha virt. eigenvalues --    0.19262   0.20822   0.21271   0.23634   0.26046
 Alpha virt. eigenvalues --    0.27629   0.29524   0.30769   0.31266   0.32269
 Alpha virt. eigenvalues --    0.32545   0.33613   0.33943   0.34971   0.36705

 Mulliken atomic charges:
              1
     1  H    0.211334
     2  C   -0.595583
     3  H    0.179465
     4  H    0.205531
     5  C    0.750445
     6  O   -0.603001
     7  N   -0.774375
     8  H    0.387128
     9  C   -0.050260
    10  H    0.202344
    11  C   -0.491399
    12  H    0.220157
    13  H    0.139314
    14  H    0.200032
    15  C    0.767282
    16  O   -0.619040
    17  N   -0.799451
    18  H    0.390905
    19  C   -0.271706
    20  H    0.201059
    21  H    0.167620
    22  H    0.182197
 Sum of Mulliken atomic charges =   0.00000

 Dipole moment (field-independent basis, Debye):
    X=              2.3625    Y=              1.1281    Z=             -2.8277  Tot=              3.8536
 Quadrupole moment (field-independent basis, Debye-Ang):
   XX=            -51.6283   YY=            -61.8287   ZZ=            -62.0244
   XY=              9.0405   XZ=              5.8404   YZ=             -0.7945

 Normal termination of Gaussian 09 at Thu Feb  9 21:17:58 2017.
