 Gaussian 09, Revision A.02,
 Gaussian 09:  EM64L-G09RevA.02 11-Jun-2009

 -------------------------------------------
 # HF/6-31G* Opt=(ModRedundant) geom=nocrowd
 -------------------------------------------

 ------------------
 Phi Psi fixed scan
 ------------------
 Symbolic Z-matrix:
 Charge =  0 Multiplicity = 1

 SCF Done:  E(RHF) =  -492.822305588     A.U. after   15 cycles
 SCF Done:  E(RHF) =  -492.838887523     A.U. after   14 cycles
 SCF Done:  E(RHF) =  -492.842568339     A.U. after   13 cycles
 SCF Done:  E(RHF) =  -492.843056967     A.U. after   13 cycles
 SCF Done:  E(RHF) =  -492.843323345     A.U. after   13 cycles
 SCF Done:  E(RHF) =  -492.843652310     A.U. after   12 cycles
 SCF Done:  E(RHF) =  -492.843722721     A.U. after   13 cycles
 SCF Done:  E(RHF) =  -492.843837775     A.U. after   13 cycles
 SCF Done:  E(RHF) =  -492.843893660     A.U. after   12 cycles
 SCF Done:  E(RHF) =  -492.843943921     A.U. after   12 cycles
 SCF Done:  E(RHF) =  -492.844082715     A.U. after   11 cycles
 SCF Done:  E(RHF) =  -492.844136110     A.U. after   12 cycles
 SCF Done:  E(RHF) =  -492.844228921     A.U. after   11 cycles
 SCF Done:  E(RHF) =  -492.844279350     A.U. after   12 cycles
 SCF Done:  E(RHF) =  -492.844326536     A.U. after   12 cycles
 SCF Done:  E(RHF) =  -492.844276999     A.U. after   12 cycles
 SCF Done:  E(RHF) =  -492.844344996     A.U. after   12 cycles
 SCF Done:  E(RHF) =  -492.844347384     A.U. after    9 cycles
 SCF Done:  E(RHF) =  -492.844347899     A.U. after   10 cycles
 SCF Done:  E(RHF) =  -492.844347920     A.U. after    8 cycles
 Optimization completed.
    -- Stationary point found.

                         Standard orientation:
 ---------------------------------------------------------------------
 Center     Atomic      Atomic             Coordinates (Angstroms)
 Number     Number       Type             X           Y           Z
 ---------------------------------------------------------------------
      1          1           0       -3.859377   -1.415789    0.304491
      2          6           0       -2.884590   -1.558952   -0.137675
      3          1           0       -2.994316   -1.822487   -1.184222
      4          1           0       -2.389021   -2.380979    0.370268
      5          6           0       -2.072924   -0.291840    0.051641
      6          8           0       -2.380058    0.536723    0.856251
      7          7           0       -0.996939   -0.200130   -0.785485
      8          1           0       -0.815692   -1.007413   -1.338757
      9          6           0        0.120770    0.730207   -0.702111
     10          1           0        0.481230    0.831370   -1.721836
     11          6           0       -0.233055    2.125405   -0.194085
     12          1           0       -0.490205    2.108129    0.851162
     13          1           0        0.626705    2.773003   -0.340588
     14          1           0       -1.067192    2.528798   -0.753864
     15          6           0        1.232416    0.108477    0.154110
     16          8           0        1.128281   -0.009556    1.342120
     17          7           0        2.305073   -0.351554   -0.532820
     18          1           0        2.412095   -0.088694   -1.484667
     19          6           0        3.455217   -0.901434    0.154319
     20          1           0        3.127246   -1.624023    0.886624
     21          1           0        4.091188   -1.394559   -0.569117
     22          1           0        4.027609   -0.134072    0.664482
 ---------------------------------------------------------------------

 The electronic state is 1-A.
 Alpha  occ. eigenvalues --  -20.52361 -20.51794 -15.59291 -15.58724 -11.34595
 Alpha  occ. eigenvalues --  -11.34359 -11.28563 -11.26183 -11.22871 -11.21160
 Alpha  occ. eigenvalues --   -1.39501  -1.38536  -1.24218  -1.23252  -1.05426
 Alpha  occ. eigenvalues --   -0.98785  -0.96274  -0.87932  -0.79993  -0.77264
 Alpha  occ. eigenvalues --   -0.72043  -0.69711  -0.65675  -0.63864  -0.62633
 Alpha  occ. eigenvalues --   -0.61711  -0.59875  -0.58695  -0.56314  -0.55802
 Alpha  occ. eigenvalues --   -0.55052  -0.53193  -0.51728  -0.51189  -0.50830
 Alpha  occ. eigenvalues --   -0.43995  -0.40735  -0.39484  -0.37699
 Alpha virt. eigenvalues --    0.18428   0.19765   0.21841   0.23638   0.26056
 Alpha virt. eigenvalues --    0.28259   0.28854   0.30755   0.31194   0.32289
 Alpha virt. eigenvalues --    0.32404   0.33802   0.34147   0.35152   0.37185

 Mulliken atomic charges:
              1
     1  H    0.215837
     2  C   -0.594120
     3  H    0.173214
     4  H    0.198867
     5  C    0.762037
     6  O   -0.585466
     7  N   -0.806498
     8  H    0.377476
     9  C   -0.028476
    10  H    0.170960
    11  C   -0.485476
    12  H    0.242739
    13  H    0.151317
    14  H    0.181165
    15  C    0.764768
    16  O   -0.599667
    17  N   -0.798527
    18  H    0.381042
    19  C   -0.275700
    20  H    0.207141
    21  H    0.167321
    22  H    0.180048
 Sum of Mulliken atomic charges =   0.00000

 Dipole moment (field-independent basis, Debye):
    X=              2.8266    Y=             -2.1730    Z=             -5.6275  Tot=              6.6619
 Quadrupole moment (field-independent basis, Debye-Ang):
   XX=            -55.8749   YY=            -57.0796   ZZ=            -63.3806
   XY=              4.9121   XZ=             -0.5701   YZ=             -0.7153

 Normal termination of Gaussian 09 at Thu Feb  9 20:58:21 2017.
