 Gaussian 09, Revision A.02,
 Gaussian 09:  EM64L-G09RevA.02 11-Jun-2009

 -------------------------------------------
 # HF/6-31G* Opt=(ModRedundant) geom=nocrowd
 -------------------------------------------

 ------------------
 Phi Psi fixed scan
 ------------------
 Symbolic Z-matrix:
 Charge =  0 Multiplicity = 1

 SCF Done:  E(RHF) =  -492.823494977     A.U. after   15 cycles
 SCF Done:  E(RHF) =  -492.839537027     A.U. after   14 cycles
 SCF Done:  E(RHF) =  -492.843149430     A.U. after   13 cycles
 SCF Done:  E(RHF) =  -492.843755936     A.U. after   13 cycles
 SCF Done:  E(RHF) =  -492.844112767     A.U. after   13 cycles
 SCF Done:  E(RHF) =  -492.844507168     A.U. after   12 cycles
 SCF Done:  E(RHF) =  -492.844650413     A.U. after   13 cycles
 SCF Done:  E(RHF) =  -492.844748992     A.U. after   13 cycles
 SCF Done:  E(RHF) =  -492.844854145     A.U. after   12 cycles
 SCF Done:  E(RHF) =  -492.844900094     A.U. after   11 cycles
 SCF Done:  E(RHF) =  -492.845065759     A.U. after   12 cycles
 SCF Done:  E(RHF) =  -492.845186031     A.U. after   12 cycles
 SCF Done:  E(RHF) =  -492.845221909     A.U. after   12 cycles
 SCF Done:  E(RHF) =  -492.845249579     A.U. after   12 cycles
 SCF Done:  E(RHF) =  -492.845249751     A.U. after   12 cycles
 SCF Done:  E(RHF) =  -492.845256627     A.U. after   11 cycles
 SCF Done:  E(RHF) =  -492.845262900     A.U. after   11 cycles
 SCF Done:  E(RHF) =  -492.845263374     A.U. after    9 cycles
 SCF Done:  E(RHF) =  -492.845263589     A.U. after    8 cycles
 SCF Done:  E(RHF) =  -492.845263808     A.U. after    8 cycles
 Optimization completed.
    -- Stationary point found.

                         Standard orientation:
 ---------------------------------------------------------------------
 Center     Atomic      Atomic             Coordinates (Angstroms)
 Number     Number       Type             X           Y           Z
 ---------------------------------------------------------------------
      1          1           0       -3.937368   -1.296705    0.215356
      2          6           0       -2.969321   -1.446814   -0.239203
      3          1           0       -3.090588   -1.640507   -1.299688
      4          1           0       -2.501317   -2.315272    0.214601
      5          6           0       -2.110890   -0.225428    0.024983
      6          8           0       -2.385023    0.562053    0.881518
      7          7           0       -1.036661   -0.117653   -0.813412
      8          1           0       -0.885793   -0.899917   -1.410421
      9          6           0        0.131122    0.731150   -0.648291
     10          1           0        0.493760    0.917222   -1.655326
     11          6           0       -0.134737    2.087888    0.004413
     12          1           0       -0.396837    1.980334    1.043445
     13          1           0        0.764792    2.691493   -0.078660
     14          1           0       -0.940641    2.599230   -0.505861
     15          6           0        1.214986   -0.025810    0.130263
     16          8           0        1.012764   -0.470330    1.225174
     17          7           0        2.388954   -0.193990   -0.521111
     18          1           0        2.542733    0.304784   -1.366331
     19          6           0        3.533031   -0.792828    0.134445
     20          1           0        3.228875   -1.701631    0.631938
     21          1           0        4.278341   -1.031108   -0.612974
     22          1           0        3.970931   -0.129158    0.872383
 ---------------------------------------------------------------------

 The electronic state is 1-A.
 Alpha  occ. eigenvalues --  -20.52367 -20.51658 -15.59301 -15.58489 -11.34443
 Alpha  occ. eigenvalues --  -11.34372 -11.28543 -11.26192 -11.22673 -11.21504
 Alpha  occ. eigenvalues --   -1.39499  -1.38397  -1.24059  -1.23320  -1.05467
 Alpha  occ. eigenvalues --   -0.98736  -0.96200  -0.88046  -0.79989  -0.77134
 Alpha  occ. eigenvalues --   -0.72059  -0.69646  -0.65692  -0.63565  -0.62634
 Alpha  occ. eigenvalues --   -0.61750  -0.59729  -0.58576  -0.56294  -0.55777
 Alpha  occ. eigenvalues --   -0.55400  -0.53346  -0.52149  -0.51107  -0.50521
 Alpha  occ. eigenvalues --   -0.43727  -0.40627  -0.39456  -0.37786
 Alpha virt. eigenvalues --    0.18624   0.19816   0.21786   0.23669   0.26067
 Alpha virt. eigenvalues --    0.28270   0.29234   0.30866   0.31167   0.31881
 Alpha virt. eigenvalues --    0.32597   0.33922   0.34092   0.34840   0.37200

 Mulliken atomic charges:
              1
     1  H    0.214542
     2  C   -0.595276
     3  H    0.172798
     4  H    0.201549
     5  C    0.764500
     6  O   -0.589285
     7  N   -0.799643
     8  H    0.377460
     9  C   -0.031865
    10  H    0.172909
    11  C   -0.485166
    12  H    0.238891
    13  H    0.149670
    14  H    0.186162
    15  C    0.758894
    16  O   -0.602605
    17  N   -0.795130
    18  H    0.382531
    19  C   -0.276281
    20  H    0.207438
    21  H    0.167993
    22  H    0.179912
 Sum of Mulliken atomic charges =   0.00000

 Dipole moment (field-independent basis, Debye):
    X=              3.0700    Y=             -1.0597    Z=             -5.4058  Tot=              6.3063
 Quadrupole moment (field-independent basis, Debye-Ang):
   XX=            -54.5108   YY=            -57.8202   ZZ=            -63.2118
   XY=              6.5160   XZ=              0.5715   YZ=              0.3609

 Normal termination of Gaussian 09 at Thu Feb  9 21:01:31 2017.
