 Gaussian 09, Revision A.02,
 Gaussian 09:  EM64L-G09RevA.02 11-Jun-2009

 -------------------------------------------
 # HF/6-31G* Opt=(ModRedundant) geom=nocrowd
 -------------------------------------------

 ------------------
 Phi Psi fixed scan
 ------------------
 Symbolic Z-matrix:
 Charge =  0 Multiplicity = 1

 SCF Done:  E(RHF) =  -492.824999134     A.U. after   15 cycles
 SCF Done:  E(RHF) =  -492.840403291     A.U. after   14 cycles
 SCF Done:  E(RHF) =  -492.844138981     A.U. after   13 cycles
 SCF Done:  E(RHF) =  -492.844880874     A.U. after   13 cycles
 SCF Done:  E(RHF) =  -492.845352605     A.U. after   13 cycles
 SCF Done:  E(RHF) =  -492.845834185     A.U. after   12 cycles
 SCF Done:  E(RHF) =  -492.846026956     A.U. after   13 cycles
 SCF Done:  E(RHF) =  -492.846110777     A.U. after   16 cycles
 SCF Done:  E(RHF) =  -492.846258000     A.U. after   13 cycles
 SCF Done:  E(RHF) =  -492.846301594     A.U. after   12 cycles
 SCF Done:  E(RHF) =  -492.846575592     A.U. after   16 cycles
 SCF Done:  E(RHF) =  -492.846490468     A.U. after   14 cycles
 SCF Done:  E(RHF) =  -492.846586927     A.U. after   11 cycles
 SCF Done:  E(RHF) =  -492.846612234     A.U. after   11 cycles
 SCF Done:  E(RHF) =  -492.846614273     A.U. after    9 cycles
 SCF Done:  E(RHF) =  -492.846635766     A.U. after   11 cycles
 SCF Done:  E(RHF) =  -492.846640171     A.U. after   11 cycles
 SCF Done:  E(RHF) =  -492.846640328     A.U. after    8 cycles
 SCF Done:  E(RHF) =  -492.846640443     A.U. after    8 cycles
 SCF Done:  E(RHF) =  -492.846640513     A.U. after    8 cycles
 Optimization completed.
    -- Stationary point found.

                         Standard orientation:
 ---------------------------------------------------------------------
 Center     Atomic      Atomic             Coordinates (Angstroms)
 Number     Number       Type             X           Y           Z
 ---------------------------------------------------------------------
      1          1           0        3.996774   -1.166234   -0.210652
      2          6           0        3.049681   -1.323631    0.283844
      3          1           0        3.209632   -1.439484    1.350519
      4          1           0        2.603994   -2.238172   -0.095663
      5          6           0        2.132505   -0.159551   -0.032721
      6          8           0        2.349592    0.582773   -0.944904
      7          7           0        1.076499   -0.041690    0.827143
      8          1           0        0.963733   -0.803442    1.458226
      9          6           0       -0.135714    0.725958    0.619653
     10          1           0       -0.493812    0.975594    1.614709
     11          6           0        0.041724    2.040458   -0.145574
     12          1           0        0.289350    1.868160   -1.179842
     13          1           0       -0.885961    2.602515   -0.087154
     14          1           0        0.830058    2.631056    0.302249
     15          6           0       -1.198121   -0.144842   -0.063549
     16          8           0       -0.930585   -0.873408   -0.977499
     17          7           0       -2.441009   -0.056839    0.463467
     18          1           0       -2.623073    0.647497    1.140438
     19          6           0       -3.573109   -0.708105   -0.162071
     20          1           0       -3.314675   -1.729199   -0.399419
     21          1           0       -4.403890   -0.705879    0.531229
     22          1           0       -3.874413   -0.209344   -1.077176
 ---------------------------------------------------------------------

 The electronic state is 1-A.
 Alpha  occ. eigenvalues --  -20.52516 -20.51597 -15.59213 -15.58265 -11.34420
 Alpha  occ. eigenvalues --  -11.34335 -11.28527 -11.26171 -11.22504 -11.21864
 Alpha  occ. eigenvalues --   -1.39578  -1.38328  -1.23948  -1.23340  -1.05528
 Alpha  occ. eigenvalues --   -0.98705  -0.96080  -0.88210  -0.79964  -0.76961
 Alpha  occ. eigenvalues --   -0.72113  -0.69620  -0.65695  -0.63281  -0.62654
 Alpha  occ. eigenvalues --   -0.61844  -0.59632  -0.58507  -0.56347  -0.55762
 Alpha  occ. eigenvalues --   -0.55591  -0.53490  -0.52670  -0.51039  -0.50352
 Alpha  occ. eigenvalues --   -0.43435  -0.40607  -0.39445  -0.37982
 Alpha virt. eigenvalues --    0.18857   0.19892   0.21801   0.23477   0.26096
 Alpha virt. eigenvalues --    0.28256   0.29273   0.30708   0.31307   0.31775
 Alpha virt. eigenvalues --    0.32661   0.33755   0.34347   0.34457   0.37370

 Mulliken atomic charges:
              1
     1  H    0.213300
     2  C   -0.596684
     3  H    0.173297
     4  H    0.204208
     5  C    0.764635
     6  O   -0.593669
     7  N   -0.791689
     8  H    0.377756
     9  C   -0.038508
    10  H    0.177191
    11  C   -0.481635
    12  H    0.233923
    13  H    0.147395
    14  H    0.190651
    15  C    0.754104
    16  O   -0.602700
    17  N   -0.793312
    18  H    0.382598
    19  C   -0.276194
    20  H    0.207671
    21  H    0.168508
    22  H    0.179153
 Sum of Mulliken atomic charges =   0.00000

 Dipole moment (field-independent basis, Debye):
    X=             -3.1184    Y=             -0.0909    Z=              4.9120  Tot=              5.8190
 Quadrupole moment (field-independent basis, Debye-Ang):
   XX=            -53.3557   YY=            -59.0636   ZZ=            -62.7065
   XY=             -7.6800   XZ=              2.1079   YZ=             -0.8534

 Normal termination of Gaussian 09 at Thu Feb  9 21:04:50 2017.
