 Gaussian 09, Revision A.02,
 Gaussian 09:  EM64L-G09RevA.02 11-Jun-2009

 -------------------------------------------
 # HF/6-31G* Opt=(ModRedundant) geom=nocrowd
 -------------------------------------------

 ------------------
 Phi Psi fixed scan
 ------------------
 Symbolic Z-matrix:
 Charge =  0 Multiplicity = 1

 SCF Done:  E(RHF) =  -492.827226019     A.U. after   15 cycles
 SCF Done:  E(RHF) =  -492.845107975     A.U. after   14 cycles
 SCF Done:  E(RHF) =  -492.849483352     A.U. after   13 cycles
 SCF Done:  E(RHF) =  -492.850854941     A.U. after   13 cycles
 SCF Done:  E(RHF) =  -492.851147786     A.U. after   13 cycles
 SCF Done:  E(RHF) =  -492.851501471     A.U. after   13 cycles
 SCF Done:  E(RHF) =  -492.851821986     A.U. after   12 cycles
 SCF Done:  E(RHF) =  -492.851822646     A.U. after   13 cycles
 SCF Done:  E(RHF) =  -492.852056693     A.U. after   13 cycles
 SCF Done:  E(RHF) =  -492.852086398     A.U. after   11 cycles
 SCF Done:  E(RHF) =  -492.852353583     A.U. after   12 cycles
 SCF Done:  E(RHF) =  -492.852425459     A.U. after   12 cycles
 SCF Done:  E(RHF) =  -492.852446665     A.U. after   11 cycles
 SCF Done:  E(RHF) =  -492.852483493     A.U. after   12 cycles
 SCF Done:  E(RHF) =  -492.852488634     A.U. after   11 cycles
 SCF Done:  E(RHF) =  -492.852504648     A.U. after   11 cycles
 SCF Done:  E(RHF) =  -492.852510189     A.U. after   11 cycles
 SCF Done:  E(RHF) =  -492.852513743     A.U. after   10 cycles
 SCF Done:  E(RHF) =  -492.852514281     A.U. after    9 cycles
 SCF Done:  E(RHF) =  -492.852514332     A.U. after    8 cycles
 Optimization completed.
    -- Stationary point found.

                         Standard orientation:
 ---------------------------------------------------------------------
 Center     Atomic      Atomic             Coordinates (Angstroms)
 Number     Number       Type             X           Y           Z
 ---------------------------------------------------------------------
      1          1           0       -3.617879   -1.561810    0.381847
      2          6           0       -3.176377   -0.923439   -0.369098
      3          1           0       -3.860148   -0.105775   -0.576564
      4          1           0       -3.033381   -1.483881   -1.286636
      5          6           0       -1.874757   -0.363245    0.165548
      6          8           0       -1.616628   -0.355180    1.335826
      7          7           0       -1.017145    0.104212   -0.784971
      8          1           0       -1.355145    0.093954   -1.720293
      9          6           0        0.099762    1.014841   -0.539992
     10          1           0        0.292299    1.482145   -1.499188
     11          6           0       -0.195593    2.136557    0.459438
     12          1           0       -0.345063    1.752608    1.456998
     13          1           0        0.638382    2.823909    0.465801
     14          1           0       -1.089409    2.671494    0.155402
     15          6           0        1.428905    0.327061   -0.210982
     16          8           0        2.411039    1.003724   -0.054200
     17          7           0        1.448830   -1.016361   -0.177843
     18          1           0        0.579168   -1.492169   -0.140909
     19          6           0        2.644470   -1.730115    0.215815
     20          1           0        3.491120   -1.354393   -0.339345
     21          1           0        2.852341   -1.619056    1.274685
     22          1           0        2.512164   -2.780291   -0.009472
 ---------------------------------------------------------------------

 The electronic state is 1-A.
 Alpha  occ. eigenvalues --  -20.53694 -20.51394 -15.59832 -15.57788 -11.36126
 Alpha  occ. eigenvalues --  -11.33792 -11.28494 -11.25121 -11.24421 -11.21278
 Alpha  occ. eigenvalues --   -1.40555  -1.38398  -1.25189  -1.22238  -1.05674
 Alpha  occ. eigenvalues --   -0.99865  -0.95582  -0.88270  -0.80179  -0.77576
 Alpha  occ. eigenvalues --   -0.72345  -0.70201  -0.65897  -0.63290  -0.62490
 Alpha  occ. eigenvalues --   -0.61878  -0.60317  -0.59241  -0.57574  -0.55758
 Alpha  occ. eigenvalues --   -0.54741  -0.54314  -0.52310  -0.51877  -0.49514
 Alpha  occ. eigenvalues --   -0.43751  -0.42641  -0.39131  -0.37992
 Alpha virt. eigenvalues --    0.18752   0.18912   0.21421   0.24732   0.26037
 Alpha virt. eigenvalues --    0.28037   0.29065   0.29657   0.31315   0.31734
 Alpha virt. eigenvalues --    0.33019   0.34011   0.34726   0.35121   0.36480

 Mulliken atomic charges:
              1
     1  H    0.218908
     2  C   -0.591844
     3  H    0.200422
     4  H    0.178547
     5  C    0.736792
     6  O   -0.592706
     7  N   -0.834079
     8  H    0.386304
     9  C   -0.022629
    10  H    0.207723
    11  C   -0.502566
    12  H    0.218909
    13  H    0.205105
    14  H    0.157357
    15  C    0.773180
    16  O   -0.625407
    17  N   -0.790626
    18  H    0.404121
    19  C   -0.274818
    20  H    0.201589
    21  H    0.180329
    22  H    0.165390
 Sum of Mulliken atomic charges =   0.00000

 Dipole moment (field-independent basis, Debye):
    X=             -3.4508    Y=             -2.0236    Z=             -3.6491  Tot=              5.4146
 Quadrupole moment (field-independent basis, Debye-Ang):
   XX=            -62.7331   YY=            -57.2469   ZZ=            -61.6400
   XY=             -6.4609   XZ=              6.7775   YZ=             -0.1921

 Normal termination of Gaussian 09 at Thu Feb  9 20:37:18 2017.
