 Gaussian 09, Revision A.02,
 Gaussian 09:  EM64L-G09RevA.02 11-Jun-2009

 -------------------------------------------
 # HF/6-31G* Opt=(ModRedundant) geom=nocrowd
 -------------------------------------------

 ------------------
 Phi Psi fixed scan
 ------------------
 Symbolic Z-matrix:
 Charge =  0 Multiplicity = 1

 SCF Done:  E(RHF) =  -492.828344125     A.U. after   15 cycles
 SCF Done:  E(RHF) =  -492.846972891     A.U. after   14 cycles
 SCF Done:  E(RHF) =  -492.851469484     A.U. after   13 cycles
 SCF Done:  E(RHF) =  -492.852704493     A.U. after   13 cycles
 SCF Done:  E(RHF) =  -492.853068070     A.U. after   13 cycles
 SCF Done:  E(RHF) =  -492.853477674     A.U. after   13 cycles
 SCF Done:  E(RHF) =  -492.853646862     A.U. after   13 cycles
 SCF Done:  E(RHF) =  -492.853798465     A.U. after   12 cycles
 SCF Done:  E(RHF) =  -492.853895289     A.U. after   11 cycles
 SCF Done:  E(RHF) =  -492.853986670     A.U. after   12 cycles
 SCF Done:  E(RHF) =  -492.854408550     A.U. after   14 cycles
 SCF Done:  E(RHF) =  -492.854431358     A.U. after   12 cycles
 SCF Done:  E(RHF) =  -492.854464199     A.U. after   11 cycles
 SCF Done:  E(RHF) =  -492.854491841     A.U. after   11 cycles
 SCF Done:  E(RHF) =  -492.854497008     A.U. after   10 cycles
 SCF Done:  E(RHF) =  -492.854500968     A.U. after   10 cycles
 SCF Done:  E(RHF) =  -492.854505366     A.U. after   10 cycles
 SCF Done:  E(RHF) =  -492.854508835     A.U. after   11 cycles
 SCF Done:  E(RHF) =  -492.854509039     A.U. after    9 cycles
 SCF Done:  E(RHF) =  -492.854509066     A.U. after    7 cycles
 Optimization completed.
    -- Stationary point found.

                         Standard orientation:
 ---------------------------------------------------------------------
 Center     Atomic      Atomic             Coordinates (Angstroms)
 Number     Number       Type             X           Y           Z
 ---------------------------------------------------------------------
      1          1           0       -3.621223   -1.570652    0.022065
      2          6           0       -3.211865   -0.740135   -0.533832
      3          1           0       -3.891978    0.102237   -0.451995
      4          1           0       -3.129130   -1.007361   -1.581434
      5          6           0       -1.874998   -0.359489    0.065145
      6          8           0       -1.569206   -0.671378    1.186899
      7          7           0       -1.047081    0.329819   -0.755221
      8          1           0       -1.387969    0.519707   -1.669596
      9          6           0        0.113159    1.122779   -0.353187
     10          1           0        0.266886    1.828942   -1.157475
     11          6           0       -0.078798    1.928976    0.935986
     12          1           0       -0.184118    1.289987    1.799817
     13          1           0        0.781920    2.572012    1.070905
     14          1           0       -0.964956    2.549432    0.855360
     15          6           0        1.429549    0.342413   -0.304016
     16          8           0        2.460342    0.921249   -0.526170
     17          7           0        1.360511   -0.968805   -0.009945
     18          1           0        0.514122   -1.305251    0.392517
     19          6           0        2.567330   -1.739815    0.199004
     20          1           0        3.245083   -1.585012   -0.627548
     21          1           0        3.077417   -1.460146    1.115200
     22          1           0        2.304586   -2.788332    0.247914
 ---------------------------------------------------------------------

 The electronic state is 1-A.
 Alpha  occ. eigenvalues --  -20.53866 -20.51531 -15.59897 -15.57300 -11.36399
 Alpha  occ. eigenvalues --  -11.33630 -11.28446 -11.24850 -11.24474 -11.22036
 Alpha  occ. eigenvalues --   -1.40654  -1.38356  -1.25182  -1.22039  -1.05979
 Alpha  occ. eigenvalues --   -1.00112  -0.95201  -0.88746  -0.80180  -0.77321
 Alpha  occ. eigenvalues --   -0.72471  -0.70320  -0.65748  -0.63310  -0.62387
 Alpha  occ. eigenvalues --   -0.61824  -0.60235  -0.59299  -0.57695  -0.56322
 Alpha  occ. eigenvalues --   -0.54676  -0.54406  -0.52696  -0.52099  -0.49554
 Alpha  occ. eigenvalues --   -0.43785  -0.43016  -0.39255  -0.37554
 Alpha virt. eigenvalues --    0.18200   0.19743   0.21101   0.25440   0.26100
 Alpha virt. eigenvalues --    0.27853   0.29381   0.30267   0.30987   0.32494
 Alpha virt. eigenvalues --    0.32679   0.34156   0.34530   0.35194   0.37563

 Mulliken atomic charges:
              1
     1  H    0.218050
     2  C   -0.586032
     3  H    0.201686
     4  H    0.181115
     5  C    0.748365
     6  O   -0.621101
     7  N   -0.809896
     8  H    0.388984
     9  C   -0.035822
    10  H    0.213563
    11  C   -0.507363
    12  H    0.215818
    13  H    0.197180
    14  H    0.166622
    15  C    0.760726
    16  O   -0.622902
    17  N   -0.795251
    18  H    0.420162
    19  C   -0.275482
    20  H    0.198744
    21  H    0.174621
    22  H    0.168212
 Sum of Mulliken atomic charges =   0.00000

 Dipole moment (field-independent basis, Debye):
    X=             -3.7465    Y=             -0.6714    Z=             -2.1136  Tot=              4.3537
 Quadrupole moment (field-independent basis, Debye-Ang):
   XX=            -62.9876   YY=            -57.8180   ZZ=            -61.2490
   XY=             -7.6969   XZ=              9.3146   YZ=              1.1074

 Normal termination of Gaussian 09 at Thu Feb  9 21:49:20 2017.
