 Gaussian 09, Revision A.02,
 Gaussian 09:  EM64L-G09RevA.02 11-Jun-2009

 -------------------------------------------
 # HF/6-31G* Opt=(ModRedundant) geom=nocrowd
 -------------------------------------------

 ------------------
 Phi Psi fixed scan
 ------------------
 Symbolic Z-matrix:
 Charge =  0 Multiplicity = 1

 SCF Done:  E(RHF) =  -492.826456309     A.U. after   15 cycles
 SCF Done:  E(RHF) =  -492.841171956     A.U. after   16 cycles
 SCF Done:  E(RHF) =  -492.845106675     A.U. after   13 cycles
 SCF Done:  E(RHF) =  -492.846049596     A.U. after   13 cycles
 SCF Done:  E(RHF) =  -492.846626343     A.U. after   16 cycles
 SCF Done:  E(RHF) =  -492.847192618     A.U. after   13 cycles
 SCF Done:  E(RHF) =  -492.847419745     A.U. after   13 cycles
 SCF Done:  E(RHF) =  -492.847599762     A.U. after   13 cycles
 SCF Done:  E(RHF) =  -492.847692897     A.U. after   11 cycles
 SCF Done:  E(RHF) =  -492.847734430     A.U. after   11 cycles
 SCF Done:  E(RHF) =  -492.847948548     A.U. after   11 cycles
 SCF Done:  E(RHF) =  -492.847834787     A.U. after   15 cycles
 SCF Done:  E(RHF) =  -492.848018196     A.U. after   12 cycles
 SCF Done:  E(RHF) =  -492.848026514     A.U. after   12 cycles
 SCF Done:  E(RHF) =  -492.848048105     A.U. after   11 cycles
 SCF Done:  E(RHF) =  -492.848050564     A.U. after   10 cycles
 SCF Done:  E(RHF) =  -492.848051690     A.U. after    8 cycles
 SCF Done:  E(RHF) =  -492.848052371     A.U. after    9 cycles
 SCF Done:  E(RHF) =  -492.848052828     A.U. after    9 cycles
 SCF Done:  E(RHF) =  -492.848052964     A.U. after    8 cycles
 Optimization completed.
    -- Stationary point found.

                         Standard orientation:
 ---------------------------------------------------------------------
 Center     Atomic      Atomic             Coordinates (Angstroms)
 Number     Number       Type             X           Y           Z
 ---------------------------------------------------------------------
      1          1           0        4.026244   -1.054753   -0.301384
      2          6           0        3.111531   -1.223764    0.247306
      3          1           0        3.327610   -1.284319    1.308554
      4          1           0        2.682120   -2.169857   -0.068090
      5          6           0        2.135254   -0.110137   -0.071358
      6          8           0        2.281688    0.604688   -1.019858
      7          7           0        1.112063   -0.000835    0.827451
      8          1           0        1.036796   -0.762466    1.464204
      9          6           0       -0.133263    0.710507    0.631750
     10          1           0       -0.477983    0.976168    1.627673
     11          6           0       -0.026241    2.011726   -0.172097
     12          1           0        0.180566    1.825693   -1.213265
     13          1           0       -0.960956    2.557288   -0.085033
     14          1           0        0.767290    2.629703    0.226289
     15          6           0       -1.184600   -0.228783    0.023906
     16          8           0       -0.885036   -1.163071   -0.665743
     17          7           0       -2.464387    0.051522    0.360799
     18          1           0       -2.656122    0.899784    0.841925
     19          6           0       -3.576162   -0.656103   -0.239448
     20          1           0       -3.384977   -1.718390   -0.210750
     21          1           0       -4.472159   -0.443438    0.328703
     22          1           0       -3.734484   -0.363819   -1.272124
 ---------------------------------------------------------------------

 The electronic state is 1-A.
 Alpha  occ. eigenvalues --  -20.52701 -20.51621 -15.59072 -15.58070 -11.34487
 Alpha  occ. eigenvalues --  -11.34282 -11.28515 -11.26135 -11.22388 -11.22175
 Alpha  occ. eigenvalues --   -1.39687  -1.38328  -1.23846  -1.23344  -1.05567
 Alpha  occ. eigenvalues --   -0.98691  -0.95932  -0.88432  -0.79945  -0.76753
 Alpha  occ. eigenvalues --   -0.72197  -0.69622  -0.65684  -0.63156  -0.62623
 Alpha  occ. eigenvalues --   -0.61911  -0.59588  -0.58489  -0.56409  -0.55879
 Alpha  occ. eigenvalues --   -0.55566  -0.53589  -0.53151  -0.51024  -0.50275
 Alpha  occ. eigenvalues --   -0.43141  -0.40685  -0.39420  -0.38229
 Alpha virt. eigenvalues --    0.19100   0.20051   0.21771   0.23162   0.26095
 Alpha virt. eigenvalues --    0.28038   0.29486   0.30557   0.31616   0.31745
 Alpha virt. eigenvalues --    0.32798   0.33383   0.34125   0.34647   0.37800

 Mulliken atomic charges:
              1
     1  H    0.212263
     2  C   -0.597522
     3  H    0.174697
     4  H    0.206127
     5  C    0.761780
     6  O   -0.597563
     7  N   -0.784297
     8  H    0.379014
     9  C   -0.045190
    10  H    0.184110
    11  C   -0.478028
    12  H    0.228593
    13  H    0.143557
    14  H    0.194172
    15  C    0.753376
    16  O   -0.603993
    17  N   -0.793719
    18  H    0.383060
    19  C   -0.274668
    20  H    0.206598
    21  H    0.168519
    22  H    0.179112
 Sum of Mulliken atomic charges =   0.00000

 Dipole moment (field-independent basis, Debye):
    X=             -3.0023    Y=              0.5487    Z=              4.2640  Tot=              5.2437
 Quadrupole moment (field-independent basis, Debye-Ang):
   XX=            -52.4666   YY=            -60.2839   ZZ=            -62.2779
   XY=             -8.3703   XZ=              3.5520   YZ=             -0.6444

 Normal termination of Gaussian 09 at Thu Feb  9 21:08:07 2017.
