 Gaussian 09, Revision A.02,
 Gaussian 09:  EM64L-G09RevA.02 11-Jun-2009

 -------------------
 #SP MP2/aug-cc-pVDZ
 -------------------

 -------------------------------
 Single Point calculation at MP2
 -------------------------------
 Symbolic Z-matrix:
 Charge =  0 Multiplicity = 1

                         Standard orientation:
 ---------------------------------------------------------------------
 Center     Atomic      Atomic             Coordinates (Angstroms)
 Number     Number       Type             X           Y           Z
 ---------------------------------------------------------------------
      1          1           0        3.968209   -0.853980   -1.205809
      2          6           0        3.158713   -1.279186   -0.607009
      3          1           0        3.615917   -1.799283    0.242091
      4          1           0        2.607519   -2.006891   -1.210609
      5          6           0        2.291204   -0.142993   -0.082409
      6          8           0        2.774796    0.875411    0.395491
      7          7           0        0.936805   -0.346404   -0.194909
      8          1           0        0.631813   -1.304707   -0.313409
      9          6           0       -0.027602    0.536588    0.478291
     10          1           0        0.239098    0.616690    1.539991
     11          6           0       -0.024713    1.941388   -0.136209
     12          1           0       -0.200513    1.904787   -1.218409
     13          1           0       -0.788118    2.571382    0.335091
     14          1           0        0.952483    2.398896    0.023591
     15          6           0       -1.375196   -0.214422    0.441291
     16          8           0       -1.530488   -1.219524    1.129191
     17          7           0       -2.303499    0.230570   -0.448909
     18          1           0       -2.115506    1.078172   -0.962609
     19          6           0       -3.605094   -0.397640   -0.598709
     20          1           0       -3.602687   -1.304140    0.007691
     21          1           0       -4.410400    0.262153   -0.253709
     22          1           0       -3.789292   -0.661742   -1.646109
 ---------------------------------------------------------------------

 SCF Done:  E(RHF) =  -492.919347294     A.U. after   14 cycles
 E2 =    -0.1602253403D+01 EUMP2 =    -0.49452160069730D+03

 The electronic state is 1-A.
 Alpha  occ. eigenvalues --  -20.53797 -20.53367 -15.60623 -15.59914 -11.36861
 Alpha  occ. eigenvalues --  -11.36479 -11.29561 -11.27545 -11.24758 -11.23580
 Alpha  occ. eigenvalues --   -1.39417  -1.38542  -1.24537  -1.23603  -1.05737
 Alpha  occ. eigenvalues --   -0.99361  -0.96006  -0.89209  -0.79914  -0.78337
 Alpha  occ. eigenvalues --   -0.73051  -0.67911  -0.66760  -0.65145  -0.62586
 Alpha  occ. eigenvalues --   -0.62066  -0.59383  -0.58699  -0.56676  -0.56117
 Alpha  occ. eigenvalues --   -0.55836  -0.54409  -0.54045  -0.52486  -0.49732
 Alpha  occ. eigenvalues --   -0.43569  -0.41961  -0.40714  -0.39587
 Alpha virt. eigenvalues --    0.02751   0.03683   0.04388   0.04641   0.05694
 Alpha virt. eigenvalues --    0.06053   0.06080   0.06879   0.07246   0.07961
 Alpha virt. eigenvalues --    0.08975   0.09600   0.11355   0.11755   0.12955

 Mulliken atomic charges:
              1
     1  H    0.022948
     2  C    0.400808
     3  H    0.062767
     4  H   -0.128792
     5  C    0.502045
     6  O   -0.853880
     7  N   -0.435334
     8  H   -0.078790
     9  C    0.252808
    10  H   -0.075888
    11  C    0.697433
    12  H    0.038660
    13  H   -0.051513
    14  H   -0.147232
    15  C    1.012415
    16  O   -0.910147
    17  N   -0.590770
    18  H   -0.109727
    19  C    0.739859
    20  H   -0.148637
    21  H   -0.085920
    22  H   -0.113112
 Sum of Mulliken atomic charges =   0.00000

 Dipole moment (field-independent basis, Debye):
    X=             -2.2978    Y=              0.0028    Z=             -3.3535  Tot=              4.0652
 Quadrupole moment (field-independent basis, Debye-Ang):
   XX=            -60.6791   YY=            -61.7620   ZZ=            -63.2179
   XY=            -12.9346   XZ=              1.6994   YZ=              2.6831

 Normal termination of Gaussian 09 at Mon Feb 13 03:24:00 2017.
