 Gaussian 09, Revision A.02,
 Gaussian 09:  EM64L-G09RevA.02 11-Jun-2009

 -------------------
 #SP MP2/aug-cc-pVDZ
 -------------------

 -------------------------------
 Single Point calculation at MP2
 -------------------------------
 Symbolic Z-matrix:
 Charge =  0 Multiplicity = 1

                         Standard orientation:
 ---------------------------------------------------------------------
 Center     Atomic      Atomic             Coordinates (Angstroms)
 Number     Number       Type             X           Y           Z
 ---------------------------------------------------------------------
      1          1           0       -3.864589   -1.393833   -0.946000
      2          6           0       -3.345590   -1.168931   -0.009500
      3          1           0       -2.922385   -2.093028    0.396100
      4          1           0       -4.092092   -0.782035    0.691700
      5          6           0       -2.309596   -0.085525   -0.272300
      6          8           0       -2.605201    0.987573   -0.791200
      7          7           0       -1.034194   -0.391718    0.096700
      8          1           0       -0.804290   -1.251617    0.580200
      9          6           0        0.058401    0.554987   -0.031000
     10          1           0       -0.005802    1.012587   -1.025500
     11          6           0       -0.002405    1.671087    1.030800
     12          1           0        0.069297    1.241688    2.035400
     13          1           0        0.817591    2.386292    0.898300
     14          1           0       -0.951108    2.203782    0.931600
     15          6           0        1.357205   -0.250206    0.113300
     16          8           0        1.404711   -1.256605    0.817100
     17          7           0        2.425003    0.244700   -0.567800
     18          1           0        2.288698    1.063299   -1.143600
     19          6           0        3.753406   -0.339593   -0.488700
     20          1           0        3.688410   -1.208693    0.166800
     21          1           0        4.100407   -0.660491   -1.477500
     22          1           0        4.475602    0.372511   -0.072600
 ---------------------------------------------------------------------

 SCF Done:  E(RHF) =  -492.928916811     A.U. after   14 cycles
 E2 =    -0.1600432261D+01 EUMP2 =    -0.49452934907200D+03

 The electronic state is 1-A.
 Alpha  occ. eigenvalues --  -20.54271 -20.52405 -15.60840 -15.59027 -11.37107
 Alpha  occ. eigenvalues --  -11.35866 -11.29437 -11.27714 -11.24282 -11.23509
 Alpha  occ. eigenvalues --   -1.39776  -1.37746  -1.24554  -1.23520  -1.05557
 Alpha  occ. eigenvalues --   -0.99031  -0.96418  -0.88462  -0.80581  -0.78550
 Alpha  occ. eigenvalues --   -0.73048  -0.67569  -0.65974  -0.64063  -0.63490
 Alpha  occ. eigenvalues --   -0.61795  -0.60253  -0.58556  -0.56957  -0.56400
 Alpha  occ. eigenvalues --   -0.55649  -0.54416  -0.52612  -0.52328  -0.49422
 Alpha  occ. eigenvalues --   -0.43702  -0.42040  -0.40600  -0.38787
 Alpha virt. eigenvalues --    0.02833   0.03914   0.04352   0.04501   0.05694
 Alpha virt. eigenvalues --    0.06115   0.06448   0.07060   0.07352   0.08124
 Alpha virt. eigenvalues --    0.09111   0.09208   0.10990   0.12144   0.13103

 Mulliken atomic charges:
              1
     1  H    0.043458
     2  C    0.338115
     3  H   -0.162265
     4  H    0.049691
     5  C    0.514352
     6  O   -0.869709
     7  N   -0.180567
     8  H   -0.074379
     9  C   -0.272134
    10  H   -0.205627
    11  C    0.786247
    12  H   -0.009673
    13  H   -0.065281
    14  H   -0.037372
    15  C    1.252214
    16  O   -0.899866
    17  N   -0.494341
    18  H   -0.110247
    19  C    0.720291
    20  H   -0.144728
    21  H   -0.084324
    22  H   -0.093857
 Sum of Mulliken atomic charges =   0.00000

 Dipole moment (field-independent basis, Debye):
    X=              2.6677    Y=             -0.0084    Z=             -0.4350  Tot=              2.7029
 Quadrupole moment (field-independent basis, Debye-Ang):
   XX=            -56.7161   YY=            -63.4627   ZZ=            -62.5891
   XY=             13.2223   XZ=             -9.5171   YZ=              2.9398

 Normal termination of Gaussian 09 at Mon Feb 13 07:53:17 2017.
