 Gaussian 09, Revision A.02,
 Gaussian 09:  EM64L-G09RevA.02 11-Jun-2009

 -------------------
 #SP MP2/aug-cc-pVDZ
 -------------------

 -------------------------------
 Single Point calculation at MP2
 -------------------------------
 Symbolic Z-matrix:
 Charge =  0 Multiplicity = 1

                         Standard orientation:
 ---------------------------------------------------------------------
 Center     Atomic      Atomic             Coordinates (Angstroms)
 Number     Number       Type             X           Y           Z
 ---------------------------------------------------------------------
      1          1           0       -4.080394   -0.724871    0.951499
      2          6           0       -3.349696   -1.141174    0.251199
      3          1           0       -3.893997   -1.429672   -0.653601
      4          1           0       -2.897700   -2.032476    0.696599
      5          6           0       -2.341591   -0.058379   -0.107201
      6          8           0       -2.687487    1.014323   -0.595101
      7          7           0       -1.039493   -0.360484    0.164799
      8          1           0       -0.758097   -1.312685    0.373199
      9          6           0        0.055711    0.507411   -0.232901
     10          1           0       -0.065188    0.776912   -1.293601
     11          6           0        0.074817    1.806111    0.593199
     12          1           0        0.288816    1.597510    1.646399
     13          1           0        0.816620    2.521308    0.216799
     14          1           0       -0.905381    2.279315    0.512299
     15          6           0        1.340508   -0.339194   -0.099401
     16          8           0        1.285202   -1.561694    0.022599
     17          7           0        2.510410    0.350701   -0.114001
     18          1           0        2.479015    1.353001   -0.225001
     19          6           0        3.808808   -0.300004   -0.054001
     20          1           0        3.637903   -1.358304    0.144999
     21          1           0        4.351608   -0.197607   -1.001401
     22          1           0        4.417310    0.126393    0.750899
 ---------------------------------------------------------------------

 SCF Done:  E(RHF) =  -492.926264173     A.U. after   14 cycles
 E2 =    -0.1601229171D+01 EUMP2 =    -0.49452749334406D+03

 The electronic state is 1-A.
 Alpha  occ. eigenvalues --  -20.54433 -20.52433 -15.60752 -15.58744 -11.37332
 Alpha  occ. eigenvalues --  -11.35753 -11.29695 -11.27725 -11.24130 -11.23757
 Alpha  occ. eigenvalues --   -1.39990  -1.37716  -1.24605  -1.23389  -1.05576
 Alpha  occ. eigenvalues --   -0.98982  -0.96102  -0.89057  -0.80717  -0.77791
 Alpha  occ. eigenvalues --   -0.73086  -0.67589  -0.66090  -0.65524  -0.62898
 Alpha  occ. eigenvalues --   -0.61681  -0.59592  -0.58717  -0.56483  -0.56414
 Alpha  occ. eigenvalues --   -0.55461  -0.54582  -0.53392  -0.52434  -0.49267
 Alpha  occ. eigenvalues --   -0.43656  -0.41890  -0.40785  -0.38948
 Alpha virt. eigenvalues --    0.02791   0.03962   0.04311   0.04459   0.05888
 Alpha virt. eigenvalues --    0.06018   0.06390   0.06691   0.07421   0.07938
 Alpha virt. eigenvalues --    0.09274   0.10446   0.11281   0.11861   0.12907

 Mulliken atomic charges:
              1
     1  H    0.049164
     2  C    0.369725
     3  H    0.048069
     4  H   -0.158974
     5  C    0.490499
     6  O   -0.873398
     7  N   -0.283919
     8  H   -0.064057
     9  C    0.081472
    10  H   -0.071659
    11  C    0.662767
    12  H   -0.033402
    13  H   -0.086445
    14  H   -0.074399
    15  C    1.122695
    16  O   -0.891790
    17  N   -0.525855
    18  H   -0.110611
    19  C    0.697104
    20  H   -0.149372
    21  H   -0.088419
    22  H   -0.109193
 Sum of Mulliken atomic charges =   0.00000

 Dipole moment (field-independent basis, Debye):
    X=              3.1415    Y=              0.5068    Z=              0.8499  Tot=              3.2936
 Quadrupole moment (field-independent basis, Debye-Ang):
   XX=            -56.4184   YY=            -64.5940   ZZ=            -61.8254
   XY=             14.2731   XZ=             -4.7358   YZ=              0.9621

 Normal termination of Gaussian 09 at Mon Feb 13 02:53:23 2017.
