 Gaussian 09, Revision A.02,
 Gaussian 09:  EM64L-G09RevA.02 11-Jun-2009

 -------------------
 #SP MP2/aug-cc-pVDZ
 -------------------

 -------------------------------
 Single Point calculation at MP2
 -------------------------------
 Symbolic Z-matrix:
 Charge =  0 Multiplicity = 1

                         Standard orientation:
 ---------------------------------------------------------------------
 Center     Atomic      Atomic             Coordinates (Angstroms)
 Number     Number       Type             X           Y           Z
 ---------------------------------------------------------------------
      1          1           0       -4.004987   -0.779489    1.177404
      2          6           0       -3.215389   -1.221192    0.563704
      3          1           0       -3.697690   -1.703991   -0.293396
      4          1           0       -2.688191   -1.981594    1.147704
      5          6           0       -2.309485   -0.106995    0.057204
      6          8           0       -2.759582    0.921206   -0.434196
      7          7           0       -0.964486   -0.340399    0.205504
      8          1           0       -0.676189   -1.306200    0.311904
      9          6           0        0.036317    0.514297   -0.443896
     10          1           0       -0.202683    0.600598   -1.513596
     11          6           0        0.052222    1.920697    0.165804
     12          1           0        0.266422    1.884997    1.240504
     13          1           0        0.794224    2.554695   -0.334896
     14          1           0       -0.929877    2.375800    0.031304
     15          6           0        1.358414   -0.278507   -0.361296
     16          8           0        1.409611   -1.416407   -0.823296
     17          7           0        2.390616    0.300590    0.306404
     18          1           0        2.278919    1.242090    0.650404
     19          6           0        3.685214   -0.343515    0.452004
     20          1           0        3.591511   -1.358614    0.064704
     21          1           0        4.461716    0.185983   -0.113096
     22          1           0        3.979914   -0.382716    1.506504
 ---------------------------------------------------------------------

 SCF Done:  E(RHF) =  -492.921060161     A.U. after   14 cycles
 E2 =    -0.1602232551D+01 EUMP2 =    -0.49452329271218D+03

 The electronic state is 1-A.
 Alpha  occ. eigenvalues --  -20.53818 -20.53180 -15.60761 -15.59548 -11.36999
 Alpha  occ. eigenvalues --  -11.36271 -11.29609 -11.27604 -11.24542 -11.23576
 Alpha  occ. eigenvalues --   -1.39499  -1.38350  -1.24490  -1.23605  -1.05687
 Alpha  occ. eigenvalues --   -0.99235  -0.96016  -0.89242  -0.80140  -0.77989
 Alpha  occ. eigenvalues --   -0.73027  -0.67781  -0.66632  -0.65373  -0.62625
 Alpha  occ. eigenvalues --   -0.61919  -0.59273  -0.58730  -0.56580  -0.56001
 Alpha  occ. eigenvalues --   -0.55669  -0.54399  -0.54017  -0.52661  -0.49599
 Alpha  occ. eigenvalues --   -0.43438  -0.42084  -0.40385  -0.39755
 Alpha virt. eigenvalues --    0.02811   0.03771   0.04383   0.04580   0.05786
 Alpha virt. eigenvalues --    0.06014   0.06166   0.06985   0.07103   0.07945
 Alpha virt. eigenvalues --    0.09222   0.09642   0.11323   0.11752   0.13025

 Mulliken atomic charges:
              1
     1  H    0.027551
     2  C    0.397217
     3  H    0.061588
     4  H   -0.130921
     5  C    0.486165
     6  O   -0.855905
     7  N   -0.431033
     8  H   -0.067023
     9  C    0.109228
    10  H   -0.037533
    11  C    0.746954
    12  H    0.050919
    13  H   -0.023646
    14  H   -0.176554
    15  C    1.091804
    16  O   -0.917138
    17  N   -0.598435
    18  H   -0.125661
    19  C    0.732279
    20  H   -0.145724
    21  H   -0.080933
    22  H   -0.113200
 Sum of Mulliken atomic charges =   0.00000

 Dipole moment (field-independent basis, Debye):
    X=              2.6582    Y=              0.4006    Z=              2.6069  Tot=              3.7447
 Quadrupole moment (field-independent basis, Debye-Ang):
   XX=            -58.8147   YY=            -63.1218   ZZ=            -62.4270
   XY=             13.6708   XZ=             -0.0635   YZ=             -2.0359

 Normal termination of Gaussian 09 at Mon Feb 13 03:16:29 2017.
