 Gaussian 09, Revision A.02,
 Gaussian 09:  EM64L-G09RevA.02 11-Jun-2009

 -------------------
 #SP MP2/aug-cc-pVDZ
 -------------------

 -------------------------------
 Single Point calculation at MP2
 -------------------------------
 Symbolic Z-matrix:
 Charge =  0 Multiplicity = 1

                         Standard orientation:
 ---------------------------------------------------------------------
 Center     Atomic      Atomic             Coordinates (Angstroms)
 Number     Number       Type             X           Y           Z
 ---------------------------------------------------------------------
      1          1           0       -4.033896   -0.739886    1.124096
      2          6           0       -3.271798   -1.181989    0.476096
      3          1           0       -3.786399   -1.597787   -0.396704
      4          1           0       -2.770701   -1.992890    1.013196
      5          6           0       -2.326594   -0.082292    0.012096
      6          8           0       -2.740390    0.961410   -0.481404
      7          7           0       -0.994595   -0.343197    0.201596
      8          1           0       -0.711898   -1.309998    0.318096
      9          6           0        0.044808    0.504600   -0.382404
     10          1           0       -0.155891    0.632801   -1.457304
     11          6           0        0.071013    1.892800    0.269996
     12          1           0        0.319013    1.826099    1.335196
     13          1           0        0.790015    2.552397   -0.232304
     14          1           0       -0.916885    2.344403    0.169996
     15          6           0        1.347505   -0.317705   -0.272204
     16          8           0        1.334201   -1.518705   -0.536504
     17          7           0        2.454608    0.332491    0.169796
     18          1           0        2.389411    1.317592    0.375396
     19          6           0        3.749005   -0.318013    0.287196
     20          1           0        3.601602   -1.380713    0.091996
     21          1           0        4.465707    0.084284   -0.438804
     22          1           0        4.155706   -0.187414    1.295996
 ---------------------------------------------------------------------

 SCF Done:  E(RHF) =  -492.922912848     A.U. after   14 cycles
 E2 =    -0.1602048020D+01 EUMP2 =    -0.49452496086803D+03

 The electronic state is 1-A.
 Alpha  occ. eigenvalues --  -20.53961 -20.52926 -15.60818 -15.59207 -11.37140
 Alpha  occ. eigenvalues --  -11.36065 -11.29669 -11.27658 -11.24358 -11.23626
 Alpha  occ. eigenvalues --   -1.39652  -1.38116  -1.24538  -1.23521  -1.05649
 Alpha  occ. eigenvalues --   -0.99129  -0.96039  -0.89245  -0.80386  -0.77775
 Alpha  occ. eigenvalues --   -0.73050  -0.67637  -0.66474  -0.65573  -0.62680
 Alpha  occ. eigenvalues --   -0.61800  -0.59253  -0.58785  -0.56539  -0.56129
 Alpha  occ. eigenvalues --   -0.55445  -0.54509  -0.53823  -0.52699  -0.49464
 Alpha  occ. eigenvalues --   -0.43459  -0.42063  -0.40312  -0.39665
 Alpha virt. eigenvalues --    0.02817   0.03854   0.04379   0.04515   0.05858
 Alpha virt. eigenvalues --    0.06004   0.06254   0.06854   0.07185   0.07942
 Alpha virt. eigenvalues --    0.09307   0.09887   0.11339   0.11818   0.13073

 Mulliken atomic charges:
              1
     1  H    0.036470
     2  C    0.383401
     3  H    0.058351
     4  H   -0.139353
     5  C    0.488653
     6  O   -0.861413
     7  N   -0.374952
     8  H   -0.059183
     9  C    0.019539
    10  H   -0.026124
    11  C    0.734482
    12  H    0.017470
    13  H   -0.002736
    14  H   -0.175538
    15  C    1.125909
    16  O   -0.914366
    17  N   -0.580618
    18  H   -0.124464
    19  C    0.733086
    20  H   -0.147837
    21  H   -0.079733
    22  H   -0.111044
 Sum of Mulliken atomic charges =   0.00000

 Dipole moment (field-independent basis, Debye):
    X=              2.9176    Y=              0.5516    Z=              1.9714  Tot=              3.5641
 Quadrupole moment (field-independent basis, Debye-Ang):
   XX=            -57.5607   YY=            -63.9893   ZZ=            -61.9970
   XY=             14.0287   XZ=             -1.5999   YZ=             -1.0479

 Normal termination of Gaussian 09 at Mon Feb 13 03:21:27 2017.
