 Gaussian 09, Revision A.02,
 Gaussian 09:  EM64L-G09RevA.02 11-Jun-2009

 -------------------
 #SP MP2/aug-cc-pVDZ
 -------------------

 -------------------------------
 Single Point calculation at MP2
 -------------------------------
 Symbolic Z-matrix:
 Charge =  0 Multiplicity = 1

                         Standard orientation:
 ---------------------------------------------------------------------
 Center     Atomic      Atomic             Coordinates (Angstroms)
 Number     Number       Type             X           Y           Z
 ---------------------------------------------------------------------
      1          1           0        3.791405   -1.738999   -0.082210
      2          6           0        3.053605   -1.252099   -0.723710
      3          1           0        2.495505   -2.011798   -1.280410
      4          1           0        3.597906   -0.626599   -1.441310
      5          6           0        2.164406   -0.367498    0.137890
      6          8           0        2.585207    0.235202    1.114190
      7          7           0        0.840406   -0.309897   -0.250310
      8          1           0        0.633806   -0.627497   -1.190710
      9          6           0       -0.045193    0.739304    0.275790
     10          1           0        0.106507    0.741304    1.361290
     11          6           0        0.280808    2.129004   -0.275110
     12          1           0        0.163008    2.155204   -1.363610
     13          1           0       -0.400691    2.871004    0.147790
     14          1           0        1.308608    2.393503   -0.013710
     15          6           0       -1.513493    0.358405   -0.007710
     16          8           0       -2.331093    1.174006   -0.414310
     17          7           0       -1.818094   -0.942895    0.271090
     18          1           0       -1.068995   -1.539195    0.594790
     19          6           0       -3.156595   -1.486594    0.133290
     20          1           0       -3.793894   -0.690593   -0.254510
     21          1           0       -3.172395   -2.332294   -0.564710
     22          1           0       -3.551095   -1.821293    1.100190
 ---------------------------------------------------------------------

 SCF Done:  E(RHF) =  -492.923198364     A.U. after   14 cycles
 E2 =    -0.1601560894D+01 EUMP2 =    -0.49452475925812D+03

 The electronic state is 1-A.
 Alpha  occ. eigenvalues --  -20.54276 -20.53588 -15.60725 -15.59790 -11.37303
 Alpha  occ. eigenvalues --  -11.36407 -11.29346 -11.27190 -11.25674 -11.22339
 Alpha  occ. eigenvalues --   -1.39685  -1.38853  -1.25357  -1.22863  -1.05497
 Alpha  occ. eigenvalues --   -0.99642  -0.96478  -0.87505  -0.79999  -0.78908
 Alpha  occ. eigenvalues --   -0.73318  -0.67843  -0.65681  -0.65408  -0.62631
 Alpha  occ. eigenvalues --   -0.62169  -0.60313  -0.59436  -0.57906  -0.56116
 Alpha  occ. eigenvalues --   -0.55071  -0.53568  -0.52561  -0.51951  -0.50118
 Alpha  occ. eigenvalues --   -0.43767  -0.43106  -0.40883  -0.39209
 Alpha virt. eigenvalues --    0.02387   0.03704   0.04299   0.04605   0.05576
 Alpha virt. eigenvalues --    0.05977   0.06422   0.06796   0.07102   0.08108
 Alpha virt. eigenvalues --    0.08453   0.09076   0.11053   0.12110   0.12737

 Mulliken atomic charges:
              1
     1  H    0.008488
     2  C    0.325883
     3  H   -0.101457
     4  H    0.051057
     5  C    0.576944
     6  O   -0.836467
     7  N   -0.394788
     8  H   -0.049646
     9  C   -0.211414
    10  H   -0.112106
    11  C    0.770017
    12  H   -0.050173
    13  H   -0.040691
    14  H   -0.039291
    15  C    1.149642
    16  O   -0.810334
    17  N   -0.553638
    18  H   -0.067281
    19  C    0.736388
    20  H   -0.150801
    21  H   -0.103571
    22  H   -0.096762
 Sum of Mulliken atomic charges =   0.00000

 Dipole moment (field-independent basis, Debye):
    X=              0.4666    Y=             -4.2156    Z=             -1.9373  Tot=              4.6628
 Quadrupole moment (field-independent basis, Debye-Ang):
   XX=            -68.8490   YY=            -59.3983   ZZ=            -62.0906
   XY=              3.7561   XZ=            -10.8776   YZ=              1.1409

 Normal termination of Gaussian 09 at Mon Feb 13 03:39:54 2017.
