 Gaussian 09, Revision A.02,
 Gaussian 09:  EM64L-G09RevA.02 11-Jun-2009

 -------------------
 #SP MP2/aug-cc-pVDZ
 -------------------

 -------------------------------
 Single Point calculation at MP2
 -------------------------------
 Symbolic Z-matrix:
 Charge =  0 Multiplicity = 1

                         Standard orientation:
 ---------------------------------------------------------------------
 Center     Atomic      Atomic             Coordinates (Angstroms)
 Number     Number       Type             X           Y           Z
 ---------------------------------------------------------------------
      1          1           0       -4.103891   -0.732638    0.839791
      2          6           0       -3.366688   -1.135233    0.138091
      3          1           0       -3.899186   -1.386336   -0.784509
      4          1           0       -2.933882   -2.046930    0.561091
      5          6           0       -2.338796   -0.055125   -0.167509
      6          8           0       -2.658103    1.028772   -0.649809
      7          7           0       -1.049494   -0.371816    0.136391
      8          1           0       -0.776987   -1.305514    0.423391
      9          6           0        0.057700    0.516491   -0.158109
     10          1           0       -0.034902    0.870391   -1.195009
     11          6           0        0.066892    1.743991    0.774291
     12          1           0        0.211094    1.435793    1.814991
     13          1           0        0.859787    2.452597    0.508591
     14          1           0       -0.892312    2.257185    0.680891
     15          6           0        1.341706   -0.327500   -0.029009
     16          8           0        1.302015   -1.514000    0.290691
     17          7           0        2.501101    0.339109   -0.271209
     18          1           0        2.450095    1.306608   -0.555909
     19          6           0        3.806306   -0.297382   -0.209409
     20          1           0        3.657113   -1.317383    0.145791
     21          1           0        4.281106   -0.328679   -1.197309
     22          1           0        4.466702    0.234222    0.484791
 ---------------------------------------------------------------------

 SCF Done:  E(RHF) =  -492.927713251     A.U. after   14 cycles
 E2 =    -0.1600753088D+01 EUMP2 =    -0.49452846633863D+03

 The electronic state is 1-A.
 Alpha  occ. eigenvalues --  -20.54543 -20.52287 -15.60740 -15.58715 -11.37332
 Alpha  occ. eigenvalues --  -11.35702 -11.29618 -11.27746 -11.24115 -11.23716
 Alpha  occ. eigenvalues --   -1.40033  -1.37613  -1.24605  -1.23394  -1.05569
 Alpha  occ. eigenvalues --   -0.98967  -0.96170  -0.88852  -0.80742  -0.78024
 Alpha  occ. eigenvalues --   -0.73068  -0.67656  -0.66000  -0.65063  -0.63105
 Alpha  occ. eigenvalues --   -0.61677  -0.59813  -0.58658  -0.56615  -0.56348
 Alpha  occ. eigenvalues --   -0.55614  -0.54557  -0.53158  -0.52350  -0.49240
 Alpha  occ. eigenvalues --   -0.43704  -0.41863  -0.40880  -0.38706
 Alpha virt. eigenvalues --    0.02787   0.03970   0.04285   0.04452   0.05811
 Alpha virt. eigenvalues --    0.06064   0.06425   0.06860   0.07378   0.08018
 Alpha virt. eigenvalues --    0.09200   0.09731   0.11086   0.12215   0.13001

 Mulliken atomic charges:
              1
     1  H    0.050057
     2  C    0.368155
     3  H    0.045834
     4  H   -0.160486
     5  C    0.487529
     6  O   -0.878238
     7  N   -0.267609
     8  H   -0.075488
     9  C    0.040391
    10  H   -0.107025
    11  C    0.696698
    12  H   -0.029365
    13  H   -0.116136
    14  H   -0.053752
    15  C    1.162337
    16  O   -0.881073
    17  N   -0.527182
    18  H   -0.111600
    19  C    0.691646
    20  H   -0.142448
    21  H   -0.086922
    22  H   -0.105320
 Sum of Mulliken atomic charges =   0.00000

 Dipole moment (field-independent basis, Debye):
    X=              3.0922    Y=              0.3745    Z=              0.3558  Tot=              3.1350
 Quadrupole moment (field-independent basis, Debye-Ang):
   XX=            -56.3331   YY=            -64.5532   ZZ=            -61.8738
   XY=             14.2054   XZ=             -6.2846   YZ=              1.7448

 Normal termination of Gaussian 09 at Mon Feb 13 03:05:54 2017.
