 Gaussian 09, Revision A.02,
 Gaussian 09:  EM64L-G09RevA.02 11-Jun-2009

 -------------------
 #SP MP2/aug-cc-pVDZ
 -------------------

 -------------------------------
 Single Point calculation at MP2
 -------------------------------
 Symbolic Z-matrix:
 Charge =  0 Multiplicity = 1

                         Standard orientation:
 ---------------------------------------------------------------------
 Center     Atomic      Atomic             Coordinates (Angstroms)
 Number     Number       Type             X           Y           Z
 ---------------------------------------------------------------------
      1          1           0        3.809008   -1.451361   -0.765087
      2          6           0        3.045209   -1.535667    0.012913
      3          1           0        3.565010   -1.666463    0.967913
      4          1           0        2.433916   -2.422871   -0.180787
      5          6           0        2.250499   -0.237473    0.059413
      6          8           0        2.796591    0.856032    0.129913
      7          7           0        0.887400   -0.380583    0.014813
      8          1           0        0.500307   -1.307886    0.121513
      9          6           0       -0.019308    0.759610    0.211713
     10          1           0        0.272088    1.291012    1.122813
     11          6           0        0.021584    1.746310   -0.966787
     12          1           0       -0.238212    1.259108   -1.913887
     13          1           0       -0.683422    2.566705   -0.793587
     14          1           0        1.028881    2.157018   -1.055887
     15          6           0       -1.437404    0.227699    0.477913
     16          8           0       -2.038906    0.471595    1.514313
     17          7           0       -1.961398   -0.535305   -0.532987
     18          1           0       -1.453398   -0.585101   -1.405187
     19          6           0       -3.321495   -1.047115   -0.495887
     20          1           0       -3.671395   -0.974018    0.534513
     21          1           0       -3.993099   -0.462420   -1.137387
     22          1           0       -3.347687   -2.093715   -0.817187
 ---------------------------------------------------------------------

 SCF Done:  E(RHF) =  -492.919218341     A.U. after   14 cycles
 E2 =    -0.1601741706D+01 EUMP2 =    -0.49452096004714D+03

 The electronic state is 1-A.
 Alpha  occ. eigenvalues --  -20.54121 -20.53524 -15.60557 -15.60492 -11.36882
 Alpha  occ. eigenvalues --  -11.36834 -11.29470 -11.27623 -11.25285 -11.23594
 Alpha  occ. eigenvalues --   -1.39529  -1.38843  -1.25317  -1.23198  -1.05926
 Alpha  occ. eigenvalues --   -0.99652  -0.96285  -0.88835  -0.79950  -0.79196
 Alpha  occ. eigenvalues --   -0.73413  -0.68047  -0.66925  -0.64265  -0.63031
 Alpha  occ. eigenvalues --   -0.62354  -0.59617  -0.59365  -0.57309  -0.57057
 Alpha  occ. eigenvalues --   -0.55639  -0.54869  -0.53252  -0.52088  -0.49936
 Alpha  occ. eigenvalues --   -0.44139  -0.42236  -0.40488  -0.39815
 Alpha virt. eigenvalues --    0.02250   0.03650   0.04250   0.04786   0.05573
 Alpha virt. eigenvalues --    0.06043   0.06218   0.06762   0.07264   0.08127
 Alpha virt. eigenvalues --    0.08262   0.09171   0.11071   0.12113   0.12569

 Mulliken atomic charges:
              1
     1  H    0.041296
     2  C    0.395580
     3  H    0.052423
     4  H   -0.160673
     5  C    0.544997
     6  O   -0.859115
     7  N   -0.160870
     8  H   -0.082294
     9  C    0.129138
    10  H   -0.203100
    11  C    0.741824
    12  H   -0.116326
    13  H   -0.035232
    14  H   -0.048291
    15  C    0.821892
    16  O   -0.808508
    17  N   -0.564577
    18  H   -0.078108
    19  C    0.726421
    20  H   -0.129076
    21  H   -0.083872
    22  H   -0.123531
 Sum of Mulliken atomic charges =   0.00000

 Dipole moment (field-independent basis, Debye):
    X=             -1.0867    Y=             -4.0514    Z=             -3.5558  Tot=              5.4989
 Quadrupole moment (field-independent basis, Debye-Ang):
   XX=            -67.6304   YY=            -58.4827   ZZ=            -64.4125
   XY=             -5.1722   XZ=              7.4281   YZ=             -1.5552

 Normal termination of Gaussian 09 at Mon Feb 13 02:50:39 2017.
