 Gaussian 09, Revision A.02,
 Gaussian 09:  EM64L-G09RevA.02 11-Jun-2009

 -------------------
 #SP MP2/aug-cc-pVDZ
 -------------------

 -------------------------------
 Single Point calculation at MP2
 -------------------------------
 Symbolic Z-matrix:
 Charge =  0 Multiplicity = 1

                         Standard orientation:
 ---------------------------------------------------------------------
 Center     Atomic      Atomic             Coordinates (Angstroms)
 Number     Number       Type             X           Y           Z
 ---------------------------------------------------------------------
      1          1           0       -3.949207   -1.521483   -0.353713
      2          6           0       -3.108307   -1.369688    0.326087
      3          1           0       -2.571211   -2.314190    0.459687
      4          1           0       -3.516405   -1.061086    1.296287
      5          6           0       -2.228101   -0.258292   -0.226513
      6          8           0       -2.681897    0.694810   -0.838413
      7          7           0       -0.866202   -0.425898   -0.007513
      8          1           0       -0.665305   -1.012699    0.797587
      9          6           0        0.023304    0.738397   -0.128713
     10          1           0       -0.241894    1.223799   -1.071213
     11          6           0       -0.159592    1.755298    1.011187
     12          1           0        0.060806    1.296497    1.982987
     13          1           0        0.523113    2.595895    0.864987
     14          1           0       -1.188390    2.125003    1.014887
     15          6           0        1.506502    0.351290   -0.224813
     16          8           0        2.347106    1.204786   -0.473813
     17          7           0        1.837495   -0.934711    0.126487
     18          1           0        1.128692   -1.636708   -0.043613
     19          6           0        3.224393   -1.372418    0.024687
     20          1           0        3.863797   -0.597321    0.449387
     21          1           0        3.349689   -2.299219    0.590887
     22          1           0        3.536393   -1.538520   -1.014713
 ---------------------------------------------------------------------

 SCF Done:  E(RHF) =  -492.919971272     A.U. after   14 cycles
 E2 =    -0.1601853959D+01 EUMP2 =    -0.49452182523032D+03

 The electronic state is 1-A.
 Alpha  occ. eigenvalues --  -20.54667 -20.53699 -15.60783 -15.60224 -11.37473
 Alpha  occ. eigenvalues --  -11.36435 -11.29223 -11.27271 -11.25811 -11.23327
 Alpha  occ. eigenvalues --   -1.39979  -1.39058  -1.25519  -1.22909  -1.05666
 Alpha  occ. eigenvalues --   -0.99913  -0.96145  -0.88079  -0.80204  -0.78524
 Alpha  occ. eigenvalues --   -0.73469  -0.68154  -0.65705  -0.63903  -0.63389
 Alpha  occ. eigenvalues --   -0.62925  -0.59460  -0.59361  -0.58366  -0.56983
 Alpha  occ. eigenvalues --   -0.55254  -0.54549  -0.52683  -0.51822  -0.49782
 Alpha  occ. eigenvalues --   -0.44132  -0.43841  -0.40494  -0.40293
 Alpha virt. eigenvalues --    0.02150   0.03710   0.04189   0.04847   0.05538
 Alpha virt. eigenvalues --    0.05902   0.06465   0.06864   0.07267   0.08286
 Alpha virt. eigenvalues --    0.08573   0.08789   0.10856   0.12428   0.12638

 Mulliken atomic charges:
              1
     1  H   -0.005765
     2  C    0.335803
     3  H   -0.085085
     4  H    0.050342
     5  C    0.562604
     6  O   -0.832665
     7  N   -0.295055
     8  H   -0.031298
     9  C   -0.134836
    10  H   -0.057689
    11  C    0.657379
    12  H   -0.046053
    13  H   -0.035581
    14  H   -0.050411
    15  C    1.029852
    16  O   -0.871418
    17  N   -0.577972
    18  H   -0.077061
    19  C    0.783417
    20  H   -0.100070
    21  H   -0.176103
    22  H   -0.042336
 Sum of Mulliken atomic charges =   0.00000

 Dipole moment (field-independent basis, Debye):
    X=             -0.5113    Y=             -5.2048    Z=              2.8520  Tot=              5.9570
 Quadrupole moment (field-independent basis, Debye-Ang):
   XX=            -68.7483   YY=            -59.7169   ZZ=            -62.3379
   XY=             -1.1710   XZ=             -3.9106   YZ=              2.1701

 Normal termination of Gaussian 09 at Mon Feb 13 03:37:37 2017.
