 Gaussian 09, Revision A.02,
 Gaussian 09:  EM64L-G09RevA.02 11-Jun-2009

 -------------------
 #SP MP2/aug-cc-pVDZ
 -------------------

 -------------------------------
 Single Point calculation at MP2
 -------------------------------
 Symbolic Z-matrix:
 Charge =  0 Multiplicity = 1

                         Standard orientation:
 ---------------------------------------------------------------------
 Center     Atomic      Atomic             Coordinates (Angstroms)
 Number     Number       Type             X           Y           Z
 ---------------------------------------------------------------------
      1          1           0       -3.817118   -1.700691   -0.160291
      2          6           0       -3.066316   -1.323796    0.537909
      3          1           0       -2.506121   -2.164699    0.959209
      4          1           0       -3.597013   -0.815792    1.351809
      5          6           0       -2.184610   -0.318501   -0.187991
      6          8           0       -2.625405    0.460802   -1.018091
      7          7           0       -0.839910   -0.370609    0.140709
      8          1           0       -0.634413   -0.811610    1.031609
      9          6           0        0.039897    0.756786   -0.198191
     10          1           0       -0.164002    0.988487   -1.249691
     11          6           0       -0.240396    2.011087    0.639409
     12          1           0       -0.109297    1.803587    1.708209
     13          1           0        0.458709    2.802583    0.361909
     14          1           0       -1.264494    2.350294    0.464109
     15          6           0        1.525394    0.363177   -0.094291
     16          8           0        2.401400    1.216971   -0.043191
     17          7           0        1.782586   -0.978925   -0.033691
     18          1           0        1.025983   -1.598520   -0.292491
     19          6           0        3.144083   -1.488133   -0.067991
     20          1           0        3.794188   -0.743337    0.392909
     21          1           0        3.203978   -2.424833    0.494209
     22          1           0        3.494582   -1.664635   -1.093491
 ---------------------------------------------------------------------

 SCF Done:  E(RHF) =  -492.923041749     A.U. after   14 cycles
 E2 =    -0.1601823358D+01 EUMP2 =    -0.49452486510710D+03

 The electronic state is 1-A.
 Alpha  occ. eigenvalues --  -20.54500 -20.53442 -15.60756 -15.59992 -11.37436
 Alpha  occ. eigenvalues --  -11.36405 -11.29339 -11.27225 -11.25788 -11.22729
 Alpha  occ. eigenvalues --   -1.39868  -1.38843  -1.25571  -1.22807  -1.05558
 Alpha  occ. eigenvalues --   -0.99774  -0.96394  -0.87731  -0.80218  -0.78644
 Alpha  occ. eigenvalues --   -0.73495  -0.68057  -0.65778  -0.64573  -0.62812
 Alpha  occ. eigenvalues --   -0.62616  -0.59938  -0.59485  -0.58149  -0.56458
 Alpha  occ. eigenvalues --   -0.55261  -0.54050  -0.52650  -0.51793  -0.49868
 Alpha  occ. eigenvalues --   -0.43912  -0.43377  -0.40585  -0.39847
 Alpha virt. eigenvalues --    0.02250   0.03708   0.04234   0.04694   0.05589
 Alpha virt. eigenvalues --    0.06010   0.06460   0.06742   0.07110   0.08172
 Alpha virt. eigenvalues --    0.08486   0.09021   0.10925   0.12180   0.12945

 Mulliken atomic charges:
              1
     1  H    0.012069
     2  C    0.337094
     3  H   -0.108889
     4  H    0.047837
     5  C    0.557190
     6  O   -0.830469
     7  N   -0.307480
     8  H   -0.034919
     9  C   -0.238306
    10  H   -0.049586
    11  C    0.711172
    12  H   -0.055484
    13  H   -0.036275
    14  H   -0.045621
    15  C    1.070104
    16  O   -0.846090
    17  N   -0.551808
    18  H   -0.067609
    19  C    0.759634
    20  H   -0.112746
    21  H   -0.151810
    22  H   -0.058008
 Sum of Mulliken atomic charges =   0.00000

 Dipole moment (field-independent basis, Debye):
    X=             -0.6682    Y=             -4.7488    Z=              2.4428  Tot=              5.3819
 Quadrupole moment (field-independent basis, Debye-Ang):
   XX=            -69.6836   YY=            -59.5223   ZZ=            -61.7782
   XY=             -2.8421   XZ=             -7.5896   YZ=              0.6540

 Normal termination of Gaussian 09 at Mon Feb 13 03:07:46 2017.
