 Gaussian 09, Revision A.02,
 Gaussian 09:  EM64L-G09RevA.02 11-Jun-2009

 -------------------
 #SP MP2/aug-cc-pVDZ
 -------------------

 -------------------------------
 Single Point calculation at MP2
 -------------------------------
 Symbolic Z-matrix:
 Charge =  0 Multiplicity = 1

                         Standard orientation:
 ---------------------------------------------------------------------
 Center     Atomic      Atomic             Coordinates (Angstroms)
 Number     Number       Type             X           Y           Z
 ---------------------------------------------------------------------
      1          1           0        3.746508   -1.807294   -0.258386
      2          6           0        3.082706   -1.167497   -0.844586
      3          1           0        2.538608   -1.777798   -1.572586
      4          1           0        3.709104   -0.451295   -1.388886
      5          6           0        2.169604   -0.408099    0.107014
      6          8           0        2.560102    0.031602    1.179914
      7          7           0        0.866803   -0.268604   -0.315786
      8          1           0        0.677504   -0.451404   -1.294186
      9          6           0       -0.039300    0.679993    0.347214
     10          1           0        0.076601    0.503694    1.421614
     11          6           0        0.291396    2.140195    0.035514
     12          1           0        0.160995    2.344594   -1.030686
     13          1           0       -0.379106    2.808492    0.585514
     14          1           0        1.321195    2.353398    0.333114
     15          6           0       -1.476498    0.328489   -0.089586
     16          8           0       -2.091101    0.993687   -0.914886
     17          7           0       -1.982995   -0.789513    0.506414
     18          1           0       -1.374993   -1.316111    1.118214
     19          6           0       -3.285293   -1.339017    0.174614
     20          1           0       -3.797495   -0.608919   -0.453286
     21          1           0       -3.198090   -2.283617   -0.377286
     22          1           0       -3.875193   -1.513619    1.081114
 ---------------------------------------------------------------------

 SCF Done:  E(RHF) =  -492.923207635     A.U. after   14 cycles
 E2 =    -0.1601093418D+01 EUMP2 =    -0.49452430105383D+03

 The electronic state is 1-A.
 Alpha  occ. eigenvalues --  -20.53891 -20.53868 -15.60478 -15.60008 -11.37013
 Alpha  occ. eigenvalues --  -11.36515 -11.29306 -11.27260 -11.25365 -11.22352
 Alpha  occ. eigenvalues --   -1.39454  -1.38903  -1.24911  -1.23203  -1.05442
 Alpha  occ. eigenvalues --   -0.99479  -0.96466  -0.87579  -0.79684  -0.79201
 Alpha  occ. eigenvalues --   -0.73141  -0.67560  -0.65943  -0.65189  -0.62594
 Alpha  occ. eigenvalues --   -0.62088  -0.60393  -0.59102  -0.57629  -0.56343
 Alpha  occ. eigenvalues --   -0.55103  -0.53522  -0.52560  -0.51762  -0.50144
 Alpha  occ. eigenvalues --   -0.43588  -0.43095  -0.40804  -0.39155
 Alpha virt. eigenvalues --    0.02648   0.03641   0.04496   0.04558   0.05581
 Alpha virt. eigenvalues --    0.06006   0.06191   0.06990   0.07331   0.08075
 Alpha virt. eigenvalues --    0.08576   0.09130   0.11194   0.11680   0.12691

 Mulliken atomic charges:
              1
     1  H    0.012353
     2  C    0.328632
     3  H   -0.101381
     4  H    0.054883
     5  C    0.573843
     6  O   -0.841369
     7  N   -0.405425
     8  H   -0.066489
     9  C   -0.147715
    10  H   -0.207643
    11  C    0.730939
    12  H   -0.007383
    13  H   -0.049038
    14  H   -0.026068
    15  C    1.228182
    16  O   -0.848439
    17  N   -0.539760
    18  H   -0.080809
    19  C    0.738578
    20  H   -0.143743
    21  H   -0.089205
    22  H   -0.112946
 Sum of Mulliken atomic charges =   0.00000

 Dipole moment (field-independent basis, Debye):
    X=             -0.2184    Y=             -3.3383    Z=             -0.9899  Tot=              3.4888
 Quadrupole moment (field-independent basis, Debye-Ang):
   XX=            -65.6723   YY=            -59.2063   ZZ=            -63.2877
   XY=              3.8372   XZ=            -13.9226   YZ=              2.0155

 Normal termination of Gaussian 09 at Mon Feb 13 03:42:16 2017.
