 Gaussian 09, Revision A.02,
 Gaussian 09:  EM64L-G09RevA.02 11-Jun-2009

 -------------------
 #SP MP2/aug-cc-pVDZ
 -------------------

 -------------------------------
 Single Point calculation at MP2
 -------------------------------
 Symbolic Z-matrix:
 Charge =  0 Multiplicity = 1

                         Standard orientation:
 ---------------------------------------------------------------------
 Center     Atomic      Atomic             Coordinates (Angstroms)
 Number     Number       Type             X           Y           Z
 ---------------------------------------------------------------------
      1          1           0       -4.105288   -1.313514   -0.226587
      2          6           0       -3.076887   -1.436309    0.117613
      3          1           0       -2.651082   -2.346807   -0.316987
      4          1           0       -3.091887   -1.554009    1.208113
      5          6           0       -2.286094   -0.185705   -0.247687
      6          8           0       -2.824300    0.900593   -0.407987
      7          7           0       -0.933593   -0.402597   -0.419587
      8          1           0       -0.614888   -1.283596   -0.030487
      9          6           0        0.090402    0.650608   -0.308487
     10          1           0        0.251599    1.087009   -1.303387
     11          6           0       -0.239504    1.779606    0.684213
     12          1           0       -0.353302    1.364106    1.689713
     13          1           0        0.586892    2.499911    0.700613
     14          1           0       -1.158107    2.288801    0.396413
     15          6           0        1.368205   -0.049885    0.188413
     16          8           0        1.371909   -0.683985    1.238913
     17          7           0        2.445105    0.042721   -0.639487
     18          1           0        2.354002    0.585920   -1.485987
     19          6           0        3.744908   -0.515872   -0.306087
     20          1           0        3.628211   -1.081973    0.618813
     21          1           0        4.094111   -1.186270   -1.099087
     22          1           0        4.492104    0.272032   -0.152887
 ---------------------------------------------------------------------

 SCF Done:  E(RHF) =  -492.917526150     A.U. after   14 cycles
 E2 =    -0.1602295302D+01 EUMP2 =    -0.49451982145202D+03

 The electronic state is 1-A.
 Alpha  occ. eigenvalues --  -20.54140 -20.53215 -15.61042 -15.59396 -11.37079
 Alpha  occ. eigenvalues --  -11.36203 -11.29750 -11.27772 -11.24421 -11.22532
 Alpha  occ. eigenvalues --   -1.39725  -1.38326  -1.24619  -1.23408  -1.05452
 Alpha  occ. eigenvalues --   -0.98975  -0.96556  -0.88079  -0.80263  -0.77215
 Alpha  occ. eigenvalues --   -0.73189  -0.67626  -0.66647  -0.64125  -0.63187
 Alpha  occ. eigenvalues --   -0.62018  -0.60505  -0.58466  -0.56569  -0.55820
 Alpha  occ. eigenvalues --   -0.55483  -0.54668  -0.52395  -0.51529  -0.49921
 Alpha  occ. eigenvalues --   -0.43750  -0.41905  -0.40567  -0.39752
 Alpha virt. eigenvalues --    0.02628   0.03959   0.04280   0.04497   0.05728
 Alpha virt. eigenvalues --    0.06037   0.06307   0.06750   0.07886   0.08041
 Alpha virt. eigenvalues --    0.08932   0.09168   0.11861   0.12046   0.12284

 Mulliken atomic charges:
              1
     1  H   -0.042876
     2  C    0.310101
     3  H   -0.042872
     4  H    0.061940
     5  C    0.691390
     6  O   -0.824551
     7  N   -0.360291
     8  H    0.016245
     9  C   -0.221432
    10  H   -0.291386
    11  C    0.672947
    12  H    0.014502
    13  H   -0.085415
    14  H    0.021634
    15  C    1.148922
    16  O   -0.862004
    17  N   -0.475828
    18  H   -0.112604
    19  C    0.729267
    20  H   -0.145767
    21  H   -0.115782
    22  H   -0.086139
 Sum of Mulliken atomic charges =   0.00000

 Dipole moment (field-independent basis, Debye):
    X=              3.2466    Y=             -1.1453    Z=             -2.0660  Tot=              4.0150
 Quadrupole moment (field-independent basis, Debye-Ang):
   XX=            -59.4578   YY=            -60.3466   ZZ=            -63.5887
   XY=             10.7632   XZ=             -8.9370   YZ=              1.4047

 Normal termination of Gaussian 09 at Sun Feb 12 20:17:06 2017.
