 Gaussian 09, Revision A.02,
 Gaussian 09:  EM64L-G09RevA.02 11-Jun-2009

 -------------------
 #SP MP2/aug-cc-pVDZ
 -------------------

 -------------------------------
 Single Point calculation at MP2
 -------------------------------
 Symbolic Z-matrix:
 Charge =  0 Multiplicity = 1

                         Standard orientation:
 ---------------------------------------------------------------------
 Center     Atomic      Atomic             Coordinates (Angstroms)
 Number     Number       Type             X           Y           Z
 ---------------------------------------------------------------------
      1          1           0        3.714806   -1.661691   -0.653896
      2          6           0        2.969906   -1.566594    0.138704
      3          1           0        3.505406   -1.515092    1.094304
      4          1           0        2.333210   -2.457497    0.146404
      5          6           0        2.199700   -0.265098   -0.075896
      6          8           0        2.744295    0.726005   -0.530396
      7          7           0        0.861600   -0.350604    0.276604
      8          1           0        0.662904   -1.158505    0.856004
      9          6           0       -0.086205    0.754392    0.516104
     10          1           0       -0.117306    0.962292    1.596804
     11          6           0        0.252989    2.060993   -0.210696
     12          1           0        0.351790    1.899794   -1.287496
     13          1           0       -0.573414    2.752590   -0.033396
     14          1           0        1.185987    2.488998    0.151904
     15          6           0       -1.536303    0.342585    0.154504
     16          8           0       -2.434107    1.173381    0.163904
     17          7           0       -1.771797   -0.998916   -0.006296
     18          1           0       -0.990694   -1.543412   -0.348896
     19          6           0       -3.104895   -1.458522   -0.374196
     20          1           0       -3.835697   -0.918425    0.229404
     21          1           0       -3.334495   -1.274223   -1.431896
     22          1           0       -3.183790   -2.529822   -0.170596
 ---------------------------------------------------------------------

 SCF Done:  E(RHF) =  -492.912056755     A.U. after   14 cycles
 E2 =    -0.1602016645D+01 EUMP2 =    -0.49451407339975D+03

 The electronic state is 1-A.
 Alpha  occ. eigenvalues --  -20.54088 -20.53768 -15.60953 -15.60142 -11.37559
 Alpha  occ. eigenvalues --  -11.36396 -11.30075 -11.27274 -11.25669 -11.21987
 Alpha  occ. eigenvalues --   -1.39595  -1.39084  -1.25552  -1.22876  -1.05712
 Alpha  occ. eigenvalues --   -0.99488  -0.96163  -0.87958  -0.80251  -0.76633
 Alpha  occ. eigenvalues --   -0.73171  -0.69741  -0.67344  -0.63986  -0.62829
 Alpha  occ. eigenvalues --   -0.62110  -0.60616  -0.59565  -0.57181  -0.55500
 Alpha  occ. eigenvalues --   -0.54576  -0.52978  -0.52505  -0.51933  -0.50363
 Alpha  occ. eigenvalues --   -0.44612  -0.42957  -0.40343  -0.39797
 Alpha virt. eigenvalues --    0.02169   0.03669   0.04081   0.04726   0.05532
 Alpha virt. eigenvalues --    0.05997   0.06478   0.06663   0.07132   0.08269
 Alpha virt. eigenvalues --    0.08496   0.08888   0.10794   0.12270   0.12612

 Mulliken atomic charges:
              1
     1  H   -0.005007
     2  C    0.343875
     3  H    0.057451
     4  H   -0.107563
     5  C    0.614201
     6  O   -0.787111
     7  N   -0.429119
     8  H   -0.051478
     9  C   -0.116266
    10  H   -0.027217
    11  C    0.747782
    12  H   -0.020662
    13  H   -0.086539
    14  H    0.024647
    15  C    0.797565
    16  O   -0.820036
    17  N   -0.492360
    18  H   -0.060218
    19  C    0.764588
    20  H   -0.111538
    21  H   -0.055772
    22  H   -0.179222
 Sum of Mulliken atomic charges =   0.00000

 Dipole moment (field-independent basis, Debye):
    X=              0.4262    Y=             -5.3824    Z=              1.2664  Tot=              5.5458
 Quadrupole moment (field-independent basis, Debye-Ang):
   XX=            -72.0642   YY=            -59.3417   ZZ=            -60.0562
   XY=              0.3463   XZ=              5.7049   YZ=              1.3261

 Normal termination of Gaussian 09 at Sun Feb 12 21:29:05 2017.
