 Gaussian 09, Revision A.02,
 Gaussian 09:  EM64L-G09RevA.02 11-Jun-2009

 -------------------
 #SP MP2/aug-cc-pVDZ
 -------------------

 -------------------------------
 Single Point calculation at MP2
 -------------------------------
 Symbolic Z-matrix:
 Charge =  0 Multiplicity = 1

                         Standard orientation:
 ---------------------------------------------------------------------
 Center     Atomic      Atomic             Coordinates (Angstroms)
 Number     Number       Type             X           Y           Z
 ---------------------------------------------------------------------
      1          1           0       -4.093099   -1.234917   -0.103596
      2          6           0       -3.149999   -1.276914    0.448504
      3          1           0       -2.666296   -2.240612    0.262004
      4          1           0       -3.392699   -1.204914    1.514104
      5          6           0       -2.303902   -0.068111    0.058804
      6          8           0       -2.771406    1.065788    0.101004
      7          7           0       -1.035801   -0.380907   -0.339296
      8          1           0       -0.748598   -1.353406   -0.329196
      9          6           0        0.087596    0.510496   -0.622896
     10          1           0        0.143195    0.686797   -1.709896
     11          6           0        0.005392    1.874096    0.076804
     12          1           0        0.090192    1.770796    1.163904
     13          1           0        0.802990    2.534099   -0.285896
     14          1           0       -0.953310    2.343093   -0.137696
     15          6           0        1.349298   -0.319600   -0.264796
     16          8           0        1.335702   -1.542900   -0.393596
     17          7           0        2.435396    0.366704    0.170304
     18          1           0        2.363493    1.365204    0.290604
     19          6           0        3.695698   -0.282492    0.493304
     20          1           0        3.570102   -1.351093    0.317704
     21          1           0        4.506097    0.095510   -0.140596
     22          1           0        3.961898   -0.119091    1.543904
 ---------------------------------------------------------------------

 SCF Done:  E(RHF) =  -492.918082321     A.U. after   14 cycles
 E2 =    -0.1602161832D+01 EUMP2 =    -0.49452024415324D+03

 The electronic state is 1-A.
 Alpha  occ. eigenvalues --  -20.54248 -20.52157 -15.60921 -15.58998 -11.37320
 Alpha  occ. eigenvalues --  -11.35956 -11.30277 -11.27770 -11.24004 -11.23684
 Alpha  occ. eigenvalues --   -1.39915  -1.37484  -1.24703  -1.23405  -1.05835
 Alpha  occ. eigenvalues --   -0.98793  -0.96100  -0.89691  -0.80897  -0.76679
 Alpha  occ. eigenvalues --   -0.73186  -0.68204  -0.66390  -0.65603  -0.62725
 Alpha  occ. eigenvalues --   -0.61750  -0.59403  -0.58660  -0.56644  -0.56122
 Alpha  occ. eigenvalues --   -0.55478  -0.54669  -0.53009  -0.52494  -0.49938
 Alpha  occ. eigenvalues --   -0.43973  -0.41236  -0.40641  -0.38739
 Alpha virt. eigenvalues --    0.02727   0.04035   0.04198   0.04523   0.05708
 Alpha virt. eigenvalues --    0.06273   0.06437   0.06462   0.07425   0.07945
 Alpha virt. eigenvalues --    0.09594   0.10103   0.10896   0.11554   0.13263

 Mulliken atomic charges:
              1
     1  H    0.031818
     2  C    0.397243
     3  H   -0.172900
     4  H    0.036194
     5  C    0.581393
     6  O   -0.859972
     7  N   -0.362850
     8  H   -0.032907
     9  C   -0.088033
    10  H   -0.006431
    11  C    0.791219
    12  H   -0.015872
    13  H   -0.032533
    14  H   -0.084687
    15  C    0.988325
    16  O   -0.907200
    17  N   -0.522789
    18  H   -0.120180
    19  C    0.736217
    20  H   -0.154593
    21  H   -0.105494
    22  H   -0.095967
 Sum of Mulliken atomic charges =   0.00000

 Dipole moment (field-independent basis, Debye):
    X=              3.3595    Y=              0.5089    Z=              0.6217  Tot=              3.4542
 Quadrupole moment (field-independent basis, Debye-Ang):
   XX=            -59.7775   YY=            -64.5232   ZZ=            -60.4908
   XY=             14.8593   XZ=              1.8738   YZ=             -2.0045

 Normal termination of Gaussian 09 at Sun Feb 12 21:46:36 2017.
