 Gaussian 09, Revision A.02,
 Gaussian 09:  EM64L-G09RevA.02 11-Jun-2009

 -------------------
 #SP MP2/aug-cc-pVDZ
 -------------------

 -------------------------------
 Single Point calculation at MP2
 -------------------------------
 Symbolic Z-matrix:
 Charge =  0 Multiplicity = 1

                         Standard orientation:
 ---------------------------------------------------------------------
 Center     Atomic      Atomic             Coordinates (Angstroms)
 Number     Number       Type             X           Y           Z
 ---------------------------------------------------------------------
      1          1           0       -4.189598   -1.115291   -0.148094
      2          6           0       -3.194598   -1.258790    0.279506
      3          1           0       -2.780997   -2.209490   -0.070794
      4          1           0       -3.305798   -1.309690    1.369006
      5          6           0       -2.332699   -0.051689   -0.075794
      6          8           0       -2.796600    1.083510   -0.078794
      7          7           0       -1.041298   -0.364588   -0.406494
      8          1           0       -0.733998   -1.319288   -0.240194
      9          6           0        0.095101    0.545913   -0.476294
     10          1           0        0.217500    0.910113   -1.507994
     11          6           0       -0.014500    1.763113    0.464106
     12          1           0       -0.023700    1.440713    1.510806
     13          1           0        0.831899    2.444114    0.321606
     14          1           0       -0.938601    2.302912    0.262506
     15          6           0        1.339102   -0.309686   -0.122694
     16          8           0        1.243203   -1.507986    0.134206
     17          7           0        2.524101    0.353615   -0.129094
     18          1           0        2.525300    1.338615   -0.349394
     19          6           0        3.792802   -0.290784    0.168206
     20          1           0        3.589802   -1.345584    0.354806
     21          1           0        4.485401   -0.201183   -0.676494
     22          1           0        4.259101    0.148216    1.057806
 ---------------------------------------------------------------------

 SCF Done:  E(RHF) =  -492.920111610     A.U. after   14 cycles
 E2 =    -0.1601896424D+01 EUMP2 =    -0.49452200803429D+03

 The electronic state is 1-A.
 Alpha  occ. eigenvalues --  -20.54711 -20.52303 -15.60862 -15.58562 -11.37479
 Alpha  occ. eigenvalues --  -11.35773 -11.30113 -11.27853 -11.23900 -11.23564
 Alpha  occ. eigenvalues --   -1.40238  -1.37542  -1.24760  -1.23227  -1.05652
 Alpha  occ. eigenvalues --   -0.98754  -0.96144  -0.89158  -0.80874  -0.76597
 Alpha  occ. eigenvalues --   -0.73225  -0.67965  -0.66355  -0.65072  -0.63057
 Alpha  occ. eigenvalues --   -0.61879  -0.59806  -0.58554  -0.56653  -0.55907
 Alpha  occ. eigenvalues --   -0.55578  -0.54809  -0.52764  -0.52176  -0.49736
 Alpha  occ. eigenvalues --   -0.43944  -0.41466  -0.40985  -0.38753
 Alpha virt. eigenvalues --    0.02646   0.04109   0.04197   0.04407   0.05813
 Alpha virt. eigenvalues --    0.05997   0.06584   0.06615   0.07526   0.07990
 Alpha virt. eigenvalues --    0.09568   0.09824   0.11125   0.12111   0.12833

 Mulliken atomic charges:
              1
     1  H    0.002221
     2  C    0.366154
     3  H   -0.107870
     4  H    0.050196
     5  C    0.604306
     6  O   -0.852349
     7  N   -0.370651
     8  H   -0.014300
     9  C   -0.162814
    10  H   -0.084383
    11  C    0.681961
    12  H   -0.017651
    13  H   -0.141792
    14  H    0.024471
    15  C    1.173127
    16  O   -0.868210
    17  N   -0.522866
    18  H   -0.120091
    19  C    0.704057
    20  H   -0.146008
    21  H   -0.098861
    22  H   -0.098647
 Sum of Mulliken atomic charges =   0.00000

 Dipole moment (field-independent basis, Debye):
    X=              3.7378    Y=              0.4089    Z=             -0.1781  Tot=              3.7643
 Quadrupole moment (field-independent basis, Debye-Ang):
   XX=            -58.4332   YY=            -64.4115   ZZ=            -60.9082
   XY=             14.6172   XZ=             -2.0297   YZ=             -0.3025

 Normal termination of Gaussian 09 at Sun Feb 12 21:51:09 2017.
