 Gaussian 09, Revision A.02,
 Gaussian 09:  EM64L-G09RevA.02 11-Jun-2009

 -------------------
 #SP MP2/aug-cc-pVDZ
 -------------------

 -------------------------------
 Single Point calculation at MP2
 -------------------------------
 Symbolic Z-matrix:
 Charge =  0 Multiplicity = 1

                         Standard orientation:
 ---------------------------------------------------------------------
 Center     Atomic      Atomic             Coordinates (Angstroms)
 Number     Number       Type             X           Y           Z
 ---------------------------------------------------------------------
      1          1           0       -3.887604   -1.690289    0.048605
      2          6           0       -2.891903   -1.576292    0.481705
      3          1           0       -2.323406   -2.500793    0.334105
      4          1           0       -3.008603   -1.413991    1.559905
      5          6           0       -2.227100   -0.352994   -0.141195
      6          8           0       -2.876197    0.614408   -0.511995
      7          7           0       -0.859600   -0.455697   -0.266295
      8          1           0       -0.452502   -1.264499    0.184905
      9          6           0        0.076003    0.670700   -0.469595
     10          1           0        0.226504    0.804299   -1.550795
     11          6           0       -0.374693    2.002301    0.138105
     12          1           0       -0.459493    1.905001    1.223205
     13          1           0        0.383809    2.763799   -0.074595
     14          1           0       -1.331292    2.313304   -0.277595
     15          6           0        1.406002    0.241896    0.191505
     16          8           0        1.633103    0.423495    1.380105
     17          7           0        2.261300   -0.417807   -0.645495
     18          1           0        2.020200   -0.479606   -1.624495
     19          6           0        3.560699   -0.908010   -0.217295
     20          1           0        3.626099   -0.757611    0.861105
     21          1           0        3.669496   -1.975011   -0.441995
     22          1           0        4.375600   -0.358913   -0.704095
 ---------------------------------------------------------------------

 SCF Done:  E(RHF) =  -492.913805826     A.U. after   14 cycles
 E2 =    -0.1602568377D+01 EUMP2 =    -0.49451637420281D+03

 The electronic state is 1-A.
 Alpha  occ. eigenvalues --  -20.54148 -20.53223 -15.60901 -15.60115 -11.36979
 Alpha  occ. eigenvalues --  -11.36547 -11.29898 -11.27759 -11.24784 -11.21804
 Alpha  occ. eigenvalues --   -1.39658  -1.38474  -1.24843  -1.23428  -1.05468
 Alpha  occ. eigenvalues --   -0.99029  -0.96708  -0.87844  -0.80010  -0.77794
 Alpha  occ. eigenvalues --   -0.73215  -0.67883  -0.66900  -0.64835  -0.62791
 Alpha  occ. eigenvalues --   -0.62126  -0.60597  -0.58789  -0.56685  -0.55712
 Alpha  occ. eigenvalues --   -0.54889  -0.54251  -0.52580  -0.51283  -0.49987
 Alpha  occ. eigenvalues --   -0.44046  -0.41723  -0.40819  -0.39465
 Alpha virt. eigenvalues --    0.02416   0.03635   0.04199   0.04671   0.05560
 Alpha virt. eigenvalues --    0.06078   0.06256   0.06796   0.07632   0.08065
 Alpha virt. eigenvalues --    0.08790   0.09289   0.11100   0.12159   0.12718

 Mulliken atomic charges:
              1
     1  H   -0.019558
     2  C    0.326060
     3  H   -0.091690
     4  H    0.060299
     5  C    0.622980
     6  O   -0.830926
     7  N   -0.379825
     8  H   -0.005612
     9  C   -0.072190
    10  H   -0.248774
    11  C    0.629359
    12  H    0.019890
    13  H   -0.063729
    14  H    0.062261
    15  C    0.990515
    16  O   -0.804655
    17  N   -0.454054
    18  H   -0.114910
    19  C    0.722487
    20  H   -0.147742
    21  H   -0.111178
    22  H   -0.089009
 Sum of Mulliken atomic charges =   0.00000

 Dipole moment (field-independent basis, Debye):
    X=              2.7722    Y=             -3.4419    Z=             -2.1310  Tot=              4.9064
 Quadrupole moment (field-independent basis, Debye-Ang):
   XX=            -64.3597   YY=            -58.2694   ZZ=            -63.6204
   XY=              4.1973   XZ=            -11.1710   YZ=             -1.3537

 Normal termination of Gaussian 09 at Sun Feb 12 22:52:57 2017.
