 Gaussian 09, Revision A.02,
 Gaussian 09:  EM64L-G09RevA.02 11-Jun-2009

 -------------------
 #SP MP2/aug-cc-pVDZ
 -------------------

 ------------------
 Phi Psi fixed scan
 ------------------
 Symbolic Z-matrix:
 Charge =  0 Multiplicity = 1

                         Standard orientation:
 ---------------------------------------------------------------------
 Center     Atomic      Atomic             Coordinates (Angstroms)
 Number     Number       Type             X           Y           Z
 ---------------------------------------------------------------------
      1          1           0       -6.766295   -0.851432   -0.682096
      2          6           0       -5.858892   -1.441528   -0.842096
      3          1           0       -5.535693   -1.328427   -1.881396
      4          1           0       -6.116688   -2.490229   -0.662796
      5          6           0       -4.810494   -1.012724    0.173904
      6          8           0       -5.024594   -1.037825    1.383004
      7          7           0       -3.617096   -0.611220   -0.347096
      8          1           0       -3.474096   -0.495619   -1.343596
      9          6           0       -2.549798   -0.104115    0.491504
     10          1           0       -2.997100    0.525883    1.271904
     11          6           0       -1.760293   -1.237612    1.177704
     12          1           0       -1.249391   -1.862610    0.438104
     13          1           0       -1.008295   -0.841609    1.869504
     14          1           0       -2.460191   -1.852515    1.748604
     15          6           0       -1.642301    0.752088   -0.406096
     16          8           0       -1.742601    0.738388   -1.629996
     17          7           0       -0.698904    1.484992    0.254904
     18          1           0       -0.732504    1.513292    1.266004
     19          6           0        0.237192    2.381196   -0.420096
     20          1           0        0.041793    2.240795   -1.488896
     21          6           0        0.000987    3.845595   -0.043096
     22          1           0        0.100186    3.995395    1.038704
     23          1           0        0.744684    4.477498   -0.532496
     24          1           0       -1.002315    4.156891   -0.348496
     25          6           0        1.710094    1.977202   -0.176896
     26          8           0        2.616291    2.805705   -0.214096
     27          7           0        1.923599    0.652202    0.014504
     28          1           0        1.160102   -0.014601    0.009704
     29          6           0        3.251302    0.081308    0.126204
     30          1           0        3.890100    0.533810   -0.643496
     31          6           0        3.884401    0.347110    1.506504
     32          1           0        3.280102   -0.109892    2.297104
     33          1           0        4.898902   -0.063286    1.564504
     34          1           0        3.935796    1.426010    1.671004
     35          6           0        3.100808   -1.427893   -0.132196
     36          8           0        2.011510   -1.988097   -0.029696
     37          7           0        4.254110   -2.075688   -0.442196
     38          1           0        5.099008   -1.530785   -0.541296
     39          6           0        4.320416   -3.509788   -0.671996
     40          1           0        3.320317   -3.913492   -0.511796
     41          1           0        4.635617   -3.730287   -1.698296
     42          1           0        5.018618   -3.987185    0.024904
 ---------------------------------------------------------------------

 SCF Done:  E(RHF) =  -984.698612291     A.U. after   15 cycles
 E2 =    -0.3193476865D+01 EUMP2 =    -0.98789208915603D+03

 The electronic state is 1-A.
 Alpha  occ. eigenvalues --  -20.55140 -20.54934 -20.53644 -20.52327 -15.61258
 Alpha  occ. eigenvalues --  -15.61230 -15.59528 -15.58836 -11.37827 -11.37747
 Alpha  occ. eigenvalues --  -11.36495 -11.35753 -11.30230 -11.29776 -11.29582
 Alpha  occ. eigenvalues --  -11.28086 -11.24353 -11.24162 -11.23438 -11.23408
 Alpha  occ. eigenvalues --   -1.40657  -1.40418  -1.38867  -1.37692  -1.26149
 Alpha  occ. eigenvalues --   -1.25063  -1.23855  -1.23470  -1.07364  -1.05181
 Alpha  occ. eigenvalues --   -1.02800  -0.98470  -0.96939  -0.92029  -0.89925
 Alpha  occ. eigenvalues --   -0.86734  -0.81691  -0.80961  -0.79039  -0.78437
 Alpha  occ. eigenvalues --   -0.75913  -0.71597  -0.68887  -0.68216  -0.67732
 Alpha  occ. eigenvalues --   -0.65756  -0.64975  -0.64196  -0.63795  -0.62937
 Alpha  occ. eigenvalues --   -0.61694  -0.60972  -0.60556  -0.59722  -0.58469
 Alpha  occ. eigenvalues --   -0.58284  -0.56638  -0.56347  -0.56097  -0.55885
 Alpha  occ. eigenvalues --   -0.54954  -0.54504  -0.54008  -0.53266  -0.52685
 Alpha  occ. eigenvalues --   -0.52306  -0.52155  -0.50376  -0.49226  -0.44944
 Alpha  occ. eigenvalues --   -0.44247  -0.43977  -0.41952  -0.41333  -0.40412
 Alpha  occ. eigenvalues --   -0.39414  -0.38636
 Alpha virt. eigenvalues --    0.02462   0.03347   0.03809   0.04044   0.04311
 Alpha virt. eigenvalues --    0.04862   0.05190   0.05777   0.06044   0.06428
 Alpha virt. eigenvalues --    0.06538   0.06816   0.07260   0.07520   0.08082

 Mulliken atomic charges:
              1
     1  H    0.042070
     2  C    0.396750
     3  H   -0.160387
     4  H    0.046650
     5  C    0.465265
     6  O   -0.875654
     7  N   -0.164145
     8  H   -0.105673
     9  C   -0.090167
    10  H   -0.192780
    11  C    0.952565
    12  H   -0.001957
    13  H   -0.115309
    14  H   -0.116782
    15  C    1.009348
    16  O   -0.923085
    17  N   -0.205563
    18  H   -0.120899
    19  C   -0.392256
    20  H   -0.055003
    21  C    0.964854
    22  H   -0.091599
    23  H   -0.044179
    24  H   -0.053948
    25  C    0.486842
    26  O   -0.838052
    27  N    0.063421
    28  H   -0.015939
    29  C   -0.530185
    30  H   -0.261104
    31  C    0.917594
    32  H   -0.042874
    33  H   -0.096339
    34  H   -0.049826
    35  C    1.251717
    36  O   -0.856986
    37  N   -0.467832
    38  H   -0.121553
    39  C    0.740034
    40  H   -0.144048
    41  H   -0.089442
    42  H   -0.113542
 Sum of Mulliken atomic charges =   0.00000

 Dipole moment (field-independent basis, Debye):
    X=              4.2417    Y=             -1.4761    Z=             -0.4823  Tot=              4.5170
 Quadrupole moment (field-independent basis, Debye-Ang):
   XX=           -110.4700   YY=           -124.9288   ZZ=           -126.0890
   XY=            -19.1092   XZ=             11.6182   YZ=              8.8417

 Normal termination of Gaussian 09 at Wed Jan 18 02:54:36 2017.
