 Gaussian 09, Revision A.02,
 Gaussian 09:  EM64L-G09RevA.02 11-Jun-2009

 -------------------
 #SP MP2/aug-cc-pVDZ
 -------------------

 ------------------
 Phi Psi fixed scan
 ------------------
 Symbolic Z-matrix:
 Charge =  0 Multiplicity = 1

                         Standard orientation:
 ---------------------------------------------------------------------
 Center     Atomic      Atomic             Coordinates (Angstroms)
 Number     Number       Type             X           Y           Z
 ---------------------------------------------------------------------
      1          1           0       -7.054610   -0.352541    0.251903
      2          6           0       -6.343907   -0.764936   -0.470597
      3          1           0       -6.289612   -0.101736   -1.339297
      4          1           0       -6.732001   -1.737439   -0.790297
      5          6           0       -5.005806   -0.973428    0.223303
      6          8           0       -4.897502   -1.646827    1.244603
      7          7           0       -3.937410   -0.369721   -0.368797
      8          1           0       -4.035414    0.234279   -1.176097
      9          6           0       -2.605009   -0.437312    0.197703
     10          1           0       -2.697810   -0.371112    1.289203
     11          6           0       -1.888701   -1.758107   -0.152297
     12          1           0       -1.793300   -1.860207   -1.238297
     13          1           0       -0.887201   -1.804901    0.289303
     14          1           0       -2.482395   -2.590711    0.233403
     15          6           0       -1.824417    0.769693   -0.342897
     16          8           0       -2.179721    1.367491   -1.353197
     17          7           0       -0.681719    1.069701    0.348803
     18          1           0       -0.597617    0.671401    1.276603
     19          6           0        0.144773    2.235906    0.039103
     20          1           0       -0.304030    2.693903   -0.844497
     21          6           0        0.163066    3.248906    1.193003
     22          1           0        0.571569    2.799409    2.106603
     23          1           0        0.792661    4.101610    0.923403
     24          1           0       -0.849436    3.608600    1.401503
     25          6           0        1.587875    1.872516   -0.357797
     26          8           0        2.258870    2.638820   -1.041597
     27          7           0        2.088783    0.737619    0.204303
     28          1           0        1.457188    0.016315    0.539103
     29          6           0        3.401086    0.230227   -0.153697
     30          1           0        3.589485    0.458829   -1.211597
     31          6           0        4.509382    0.886235    0.689903
     32          1           0        4.365583    0.667034    1.752803
     33          1           0        5.505284    0.536941    0.394303
     34          1           0        4.468975    1.968334    0.540803
     35          6           0        3.344296   -1.298373    0.035103
     36          8           0        2.375000   -1.843179    0.562403
     37          7           0        4.432401   -1.977066   -0.409497
     38          1           0        5.172497   -1.456761   -0.858997
     39          6           0        4.563310   -3.421665   -0.306897
     40          1           0        3.676213   -3.795971    0.204703
     41          1           0        4.626313   -3.882964   -1.298997
     42          1           0        5.454412   -3.694459    0.269503
 ---------------------------------------------------------------------

 SCF Done:  E(RHF) =  -984.696749639     A.U. after   15 cycles
 E2 =    -0.3192401233D+01 EUMP2 =    -0.98788915087192D+03

 The electronic state is 1-A.
 Alpha  occ. eigenvalues --  -20.55261 -20.55133 -20.53709 -20.52335 -15.61427
 Alpha  occ. eigenvalues --  -15.61152 -15.59522 -15.58923 -11.38007 -11.37717
 Alpha  occ. eigenvalues --  -11.36374 -11.35802 -11.30249 -11.29590 -11.29518
 Alpha  occ. eigenvalues --  -11.28238 -11.24573 -11.24539 -11.24217 -11.23273
 Alpha  occ. eigenvalues --   -1.40754  -1.40540  -1.38880  -1.37708  -1.26078
 Alpha  occ. eigenvalues --   -1.25271  -1.23868  -1.23502  -1.07532  -1.05160
 Alpha  occ. eigenvalues --   -1.03006  -0.98508  -0.97057  -0.92001  -0.89961
 Alpha  occ. eigenvalues --   -0.87158  -0.81739  -0.81126  -0.78746  -0.78503
 Alpha  occ. eigenvalues --   -0.75802  -0.71629  -0.69273  -0.68091  -0.67099
 Alpha  occ. eigenvalues --   -0.65737  -0.65547  -0.64205  -0.63241  -0.62990
 Alpha  occ. eigenvalues --   -0.62566  -0.61170  -0.60486  -0.59236  -0.58640
 Alpha  occ. eigenvalues --   -0.57961  -0.57215  -0.56677  -0.56381  -0.55847
 Alpha  occ. eigenvalues --   -0.55720  -0.54451  -0.54265  -0.53491  -0.52996
 Alpha  occ. eigenvalues --   -0.52300  -0.52106  -0.49997  -0.49327  -0.45119
 Alpha  occ. eigenvalues --   -0.44485  -0.43936  -0.41975  -0.41626  -0.40336
 Alpha  occ. eigenvalues --   -0.39778  -0.38678
 Alpha virt. eigenvalues --    0.02416   0.03389   0.03767   0.04019   0.04303
 Alpha virt. eigenvalues --    0.04860   0.05171   0.05763   0.06023   0.06205
 Alpha virt. eigenvalues --    0.06709   0.06919   0.07201   0.07573   0.07724

 Mulliken atomic charges:
              1
     1  H    0.041979
     2  C    0.371246
     3  H   -0.163972
     4  H    0.047464
     5  C    0.501468
     6  O   -0.872541
     7  N   -0.118155
     8  H   -0.095919
     9  C   -0.262166
    10  H   -0.193595
    11  C    0.947545
    12  H   -0.075273
    13  H   -0.129482
    14  H   -0.076638
    15  C    1.007795
    16  O   -0.907260
    17  N    0.203329
    18  H   -0.092623
    19  C   -0.579007
    20  H   -0.139032
    21  C    1.001280
    22  H   -0.080020
    23  H   -0.056314
    24  H   -0.088741
    25  C    0.841951
    26  O   -0.936584
    27  N   -0.353014
    28  H   -0.020175
    29  C   -0.282276
    30  H   -0.140203
    31  C    0.863514
    32  H   -0.047153
    33  H   -0.135774
    34  H   -0.051311
    35  C    1.161623
    36  O   -0.875267
    37  N   -0.473353
    38  H   -0.118660
    39  C    0.723134
    40  H   -0.148309
    41  H   -0.092043
    42  H   -0.107466
 Sum of Mulliken atomic charges =   0.00000

 Dipole moment (field-independent basis, Debye):
    X=              4.3645    Y=             -1.0872    Z=              0.1609  Tot=              4.5007
 Quadrupole moment (field-independent basis, Debye-Ang):
   XX=            -99.2530   YY=           -130.7273   ZZ=           -127.9345
   XY=            -21.1853   XZ=              8.5615   YZ=             18.1248

 Normal termination of Gaussian 09 at Wed Jan 18 04:44:40 2017.
