 Gaussian 09, Revision A.02,
 Gaussian 09:  EM64L-G09RevA.02 11-Jun-2009

 -------------------
 #SP MP2/aug-cc-pVDZ
 -------------------

 ------------------
 Phi Psi fixed scan
 ------------------
 Symbolic Z-matrix:
 Charge =  0 Multiplicity = 1

                         Standard orientation:
 ---------------------------------------------------------------------
 Center     Atomic      Atomic             Coordinates (Angstroms)
 Number     Number       Type             X           Y           Z
 ---------------------------------------------------------------------
      1          1           0       -6.597496   -1.917401   -0.617906
      2          6           0       -6.202298   -0.900900   -0.526106
      3          1           0       -6.939699   -0.314202    0.030494
      4          1           0       -6.085799   -0.472500   -1.526306
      5          6           0       -4.908598   -0.947698    0.273594
      6          8           0       -4.864497   -1.389498    1.418394
      7          7           0       -3.805299   -0.467797   -0.366206
      8          1           0       -3.848699   -0.069797   -1.296306
      9          6           0       -2.505499   -0.414694    0.275194
     10          1           0       -2.664199   -0.164595    1.331194
     11          6           0       -1.764096   -1.764893    0.193294
     12          1           0       -1.615696   -2.050693   -0.853106
     13          1           0       -0.783797   -1.724892    0.680594
     14          1           0       -2.370895   -2.527594    0.688294
     15          6           0       -1.704300    0.690607   -0.426006
     16          8           0       -1.943801    1.019807   -1.583506
     17          7           0       -0.683401    1.225409    0.311594
     18          1           0       -0.668901    1.025509    1.304294
     19          6           0        0.152697    2.321810   -0.171806
     20          1           0       -0.179303    2.507909   -1.197606
     21          6           0       -0.033805    3.597110    0.659894
     22          1           0        0.212395    3.420210    1.714694
     23          1           0        0.633193    4.375811    0.283394
     24          1           0       -1.069306    3.945108    0.598594
     25          6           0        1.650397    1.962012   -0.261606
     26          8           0        2.469396    2.801114   -0.627706
     27          7           0        1.985799    0.702713    0.111994
     28          1           0        1.270401    0.002212    0.272594
     29          6           0        3.335200    0.188415   -0.015106
     30          1           0        3.756100    0.537716   -0.967506
     31          6           0        4.244600    0.677317    1.128694
     32          1           0        3.866000    0.327516    2.094694
     33          1           0        5.271800    0.315518    1.006494
     34          1           0        4.260198    1.769917    1.123994
     35          6           0        3.217803   -1.346685   -0.029706
     36          8           0        2.181204   -1.913787    0.311694
     37          7           0        4.338704   -2.005883   -0.420806
     38          1           0        5.138803   -1.461882   -0.711806
     39          6           0        4.433006   -3.456283   -0.460906
     40          1           0        3.474107   -3.856285   -0.130206
     41          1           0        4.637307   -3.808383   -1.478306
     42          1           0        5.223807   -3.818082    0.206194
 ---------------------------------------------------------------------

 SCF Done:  E(RHF) =  -984.699377176     A.U. after   15 cycles
 E2 =    -0.3193134805D+01 EUMP2 =    -0.98789251198120D+03

 The electronic state is 1-A.
 Alpha  occ. eigenvalues --  -20.55137 -20.55071 -20.53394 -20.52352 -15.61371
 Alpha  occ. eigenvalues --  -15.61211 -15.59616 -15.58992 -11.37923 -11.37719
 Alpha  occ. eigenvalues --  -11.36394 -11.35842 -11.30291 -11.29645 -11.29474
 Alpha  occ. eigenvalues --  -11.28185 -11.24452 -11.24254 -11.23942 -11.23158
 Alpha  occ. eigenvalues --   -1.40663  -1.40490  -1.38725  -1.37739  -1.26153
 Alpha  occ. eigenvalues --   -1.25197  -1.23874  -1.23525  -1.07346  -1.05202
 Alpha  occ. eigenvalues --   -1.02939  -0.98511  -0.97021  -0.92010  -0.89871
 Alpha  occ. eigenvalues --   -0.86894  -0.81675  -0.81075  -0.78875  -0.78692
 Alpha  occ. eigenvalues --   -0.75884  -0.71653  -0.69216  -0.68326  -0.67217
 Alpha  occ. eigenvalues --   -0.65651  -0.65280  -0.64245  -0.63271  -0.63001
 Alpha  occ. eigenvalues --   -0.62022  -0.61125  -0.60555  -0.59548  -0.58476
 Alpha  occ. eigenvalues --   -0.58089  -0.56865  -0.56708  -0.56313  -0.55902
 Alpha  occ. eigenvalues --   -0.55358  -0.54280  -0.54177  -0.53200  -0.52830
 Alpha  occ. eigenvalues --   -0.52238  -0.52207  -0.49865  -0.49334  -0.44938
 Alpha  occ. eigenvalues --   -0.44423  -0.43973  -0.41998  -0.41479  -0.40208
 Alpha  occ. eigenvalues --   -0.39616  -0.38697
 Alpha virt. eigenvalues --    0.02431   0.03360   0.03767   0.04047   0.04309
 Alpha virt. eigenvalues --    0.04848   0.05222   0.05798   0.06061   0.06283
 Alpha virt. eigenvalues --    0.06541   0.07042   0.07148   0.07450   0.07911

 Mulliken atomic charges:
              1
     1  H    0.043698
     2  C    0.377253
     3  H    0.046231
     4  H   -0.167079
     5  C    0.485539
     6  O   -0.874394
     7  N   -0.101571
     8  H   -0.105473
     9  C   -0.220416
    10  H   -0.262503
    11  C    0.958352
    12  H   -0.085447
    13  H   -0.094295
    14  H   -0.075406
    15  C    0.987875
    16  O   -0.936998
    17  N   -0.065322
    18  H   -0.118914
    19  C   -0.587992
    20  H   -0.016828
    21  C    1.030086
    22  H   -0.069248
    23  H   -0.054456
    24  H   -0.069391
    25  C    0.807794
    26  O   -0.901228
    27  N   -0.069206
    28  H   -0.004350
    29  C   -0.429522
    30  H   -0.192732
    31  C    0.879711
    32  H   -0.042995
    33  H   -0.122303
    34  H   -0.047263
    35  C    1.157774
    36  O   -0.869892
    37  N   -0.461554
    38  H   -0.119455
    39  C    0.733490
    40  H   -0.142294
    41  H   -0.091449
    42  H   -0.107826
 Sum of Mulliken atomic charges =   0.00000

 Dipole moment (field-independent basis, Debye):
    X=              3.9882    Y=             -1.2769    Z=             -0.2503  Tot=              4.1951
 Quadrupole moment (field-independent basis, Debye-Ang):
   XX=           -102.0120   YY=           -128.7727   ZZ=           -128.1260
   XY=            -21.6354   XZ=             10.6728   YZ=             14.3311

 Normal termination of Gaussian 09 at Tue Jan 17 23:18:53 2017.
