 Gaussian 09, Revision A.02,
 Gaussian 09:  EM64L-G09RevA.02 11-Jun-2009

 -------------------
 #SP MP2/aug-cc-pVDZ
 -------------------

 ------------------
 Phi Psi fixed scan
 ------------------
 Symbolic Z-matrix:
 Charge =  0 Multiplicity = 1

                         Standard orientation:
 ---------------------------------------------------------------------
 Center     Atomic      Atomic             Coordinates (Angstroms)
 Number     Number       Type             X           Y           Z
 ---------------------------------------------------------------------
      1          1           0       -7.326900   -0.751497   -1.598598
      2          6           0       -6.770399    0.131002   -1.267698
      3          1           0       -7.482499    0.797203   -0.770798
      4          1           0       -6.356499    0.639802   -2.143798
      5          6           0       -5.717600   -0.301799   -0.257098
      6          8           0       -6.015500   -0.870198    0.790202
      7          7           0       -4.429099   -0.021300   -0.596198
      8          1           0       -4.189499    0.503300   -1.429398
      9          6           0       -3.316400   -0.314401    0.285702
     10          1           0       -3.612199   -0.064601    1.312002
     11          6           0       -2.916301   -1.803401    0.241102
     12          1           0       -2.617401   -2.086801   -0.773698
     13          1           0       -2.083701   -2.015802    0.921402
     14          1           0       -3.776302   -2.406600    0.541902
     15          6           0       -2.148099    0.580898   -0.152698
     16          8           0       -2.128198    1.119998   -1.258098
     17          7           0       -1.157399    0.724097    0.769502
     18          1           0       -1.147599    0.110697    1.578202
     19          6           0        0.149702    1.269896    0.432402
     20          1           0        0.134202    1.486496   -0.639598
     21          6           0        0.449103    2.558396    1.217302
     22          1           0        0.446803    2.360296    2.294502
     23          1           0        1.429203    2.963995    0.943002
     24          1           0       -0.314396    3.310496    0.998402
     25          6           0        1.195101    0.188295    0.754702
     26          8           0        1.014600   -0.608905    1.677002
     27          7           0        2.309701    0.198394   -0.010498
     28          1           0        2.457201    0.883494   -0.745198
     29          6           0        3.439500   -0.679407    0.238902
     30          1           0        3.597200   -0.736607    1.323102
     31          6           0        3.192299   -2.101607   -0.300398
     32          1           0        3.041999   -2.078007   -1.384498
     33          1           0        4.037698   -2.763408   -0.080998
     34          1           0        2.298398   -2.512306    0.175402
     35          6           0        4.657801   -0.025408   -0.436898
     36          8           0        4.519301    0.854192   -1.283898
     37          7           0        5.864000   -0.511709   -0.045298
     38          1           0        5.886300   -1.219409    0.675402
     39          6           0        7.123601   -0.055211   -0.610898
     40          1           0        6.890801    0.703990   -1.358098
     41          1           0        7.763801    0.385289    0.161602
     42          1           0        7.661500   -0.880611   -1.090998
 ---------------------------------------------------------------------

 SCF Done:  E(RHF) =  -984.702076407     A.U. after   14 cycles
 E2 =    -0.3190979672D+01 EUMP2 =    -0.98789305607924D+03

 The electronic state is 1-A.
 Alpha  occ. eigenvalues --  -20.55318 -20.54558 -20.54378 -20.51920 -15.61610
 Alpha  occ. eigenvalues --  -15.60493 -15.59875 -15.58460 -11.38132 -11.37248
 Alpha  occ. eigenvalues --  -11.36961 -11.35389 -11.30731 -11.29760 -11.28937
 Alpha  occ. eigenvalues --  -11.28375 -11.24743 -11.24281 -11.23891 -11.23087
 Alpha  occ. eigenvalues --   -1.40932  -1.40079  -1.39371  -1.37267  -1.25440
 Alpha  occ. eigenvalues --   -1.25217  -1.24682  -1.23070  -1.07722  -1.05292
 Alpha  occ. eigenvalues --   -1.02625  -0.98162  -0.97247  -0.92100  -0.90197
 Alpha  occ. eigenvalues --   -0.86785  -0.81968  -0.80172  -0.79593  -0.77995
 Alpha  occ. eigenvalues --   -0.76026  -0.71561  -0.68952  -0.67884  -0.67364
 Alpha  occ. eigenvalues --   -0.65528  -0.65157  -0.64813  -0.63810  -0.62192
 Alpha  occ. eigenvalues --   -0.61894  -0.61096  -0.60939  -0.59814  -0.59430
 Alpha  occ. eigenvalues --   -0.58040  -0.57042  -0.56413  -0.56104  -0.55679
 Alpha  occ. eigenvalues --   -0.55307  -0.54400  -0.53964  -0.53829  -0.53153
 Alpha  occ. eigenvalues --   -0.52105  -0.51945  -0.50594  -0.48851  -0.44733
 Alpha  occ. eigenvalues --   -0.44278  -0.43475  -0.41802  -0.41555  -0.40629
 Alpha  occ. eigenvalues --   -0.39899  -0.38369
 Alpha virt. eigenvalues --    0.02267   0.03671   0.03831   0.03891   0.04421
 Alpha virt. eigenvalues --    0.04785   0.05139   0.05904   0.06097   0.06204
 Alpha virt. eigenvalues --    0.06573   0.06616   0.07235   0.07575   0.07897

 Mulliken atomic charges:
              1
     1  H    0.043495
     2  C    0.369318
     3  H    0.042950
     4  H   -0.164174
     5  C    0.478287
     6  O   -0.875429
     7  N   -0.135715
     8  H   -0.096133
     9  C   -0.185578
    10  H   -0.172807
    11  C    0.873423
    12  H   -0.042167
    13  H   -0.069244
    14  H   -0.096379
    15  C    0.953177
    16  O   -0.924040
    17  N   -0.253443
    18  H   -0.034024
    19  C   -0.355691
    20  H   -0.187123
    21  C    0.966569
    22  H   -0.034674
    23  H   -0.054108
    24  H   -0.084927
    25  C    0.887504
    26  O   -0.923196
    27  N   -0.178162
    28  H   -0.099533
    29  C   -0.317711
    30  H   -0.163098
    31  C    0.897431
    32  H   -0.042206
    33  H   -0.094261
    34  H   -0.059371
    35  C    1.223292
    36  O   -0.898197
    37  N   -0.460511
    38  H   -0.122478
    39  C    0.713689
    40  H   -0.142714
    41  H   -0.086851
    42  H   -0.095190
 Sum of Mulliken atomic charges =   0.00000

 Dipole moment (field-independent basis, Debye):
    X=              6.5454    Y=             -0.5442    Z=             -0.2490  Tot=              6.5727
 Quadrupole moment (field-independent basis, Debye-Ang):
   XX=           -106.4099   YY=           -121.1402   ZZ=           -129.5605
   XY=            -18.0528   XZ=             20.2533   YZ=              7.7419

 Normal termination of Gaussian 09 at Wed Jan 18 01:02:52 2017.
